 argument  1 = dimqm_static_pol.nw



============================== echo of input deck ==============================

echo
start
title "H2O on Ag"
#print high
geometry units angstrom nocenter noautoz
 O                 8.77800          .0000000000         .0000000000
 H                 9.30230          .0000000000         .7545655371
 H                 9.30230          .0000000000        -.7545655371
symmetry c1
end

basis spherical
 * library 6-311G
end

driver
 maxiter 100
end

dft
 iterations 200
 xc b3lyp
 grid medium
end

dimqm
 debug
 PIM
 Algorithm 1
 screen none
end

dimpar
 Ag
  rad 1.4445
  bound 3.7180
  drude 9.2093 0.0200 EV
 END

 xyz
  55
  Ag      0.0000000      0.0000000      0.0000000
  Ag      2.8890000      0.0000000      0.0000000
  Ag      5.7780000      0.0000000      0.0000000
  Ag      1.2913830      2.5827660      0.0000000
  Ag      4.1803830      2.5827660      0.0000000
  Ag      2.5827660      5.1655320      0.0000000
  Ag      1.2971610      0.8031420      2.4527610
  Ag      4.1861610      0.8031420      2.4527610
  Ag      2.5885440      3.3859080      2.4527610
  Ag      2.5943220      1.6062840      4.9055220
  Ag     -1.2856050      2.0916360      1.5196140
  Ag      0.0115560      2.8918890      3.9723750
  Ag      0.0057780      4.6744020      1.5196140
  Ag     -2.5712100      4.1832720      3.0392280
  Ag      1.2913830      0.7981186     -2.4563564
  Ag      4.1803830      0.7981186     -2.4563564
  Ag      2.5827660      1.5962373     -4.9127128
  Ag      2.5885440      3.3790175     -2.4622450
  Ag     -1.2856050      2.0915899     -1.5196775
  Ag      0.0115560      4.6715960     -1.5228184
  Ag      0.0057780      2.8897085     -3.9760339
  Ag     -2.5712100      4.1831798     -3.0393549
  Ag      1.2913830     -2.0895015     -1.5181119
  Ag      4.1803830     -2.0895015     -1.5181119
  Ag      2.5827660     -4.1790030     -3.0362237
  Ag      2.5885440     -1.2975602     -3.9745122
  Ag     -1.2856050     -0.7989623     -2.4588264
  Ag      0.0115560     -0.0046837     -4.9135286
  Ag      0.0057780     -2.8884638     -3.9769382
  Ag     -2.5712100     -1.5979245     -4.9176528
  Ag      1.2913830     -2.0895017      1.5181116
  Ag      4.1803830     -2.0895017      1.5181116
  Ag      2.5827660     -4.1790034      3.0362233
  Ag      2.5885440     -4.1809539      0.0058612
  Ag     -1.2856050     -2.5853758      0.0000391
  Ag      0.0115560     -4.6744907     -1.5139095
  Ag      0.0057780     -4.6748775      1.5181507
  Ag     -2.5712100     -5.1707515      0.0000782
  Ag      2.5885440     -1.2864116      3.9781346
  Ag     -1.2856050     -0.7988879      2.4588505
  Ag      0.0115560     -2.8843106      3.9778810
  Ag      0.0057780     -0.0007696      4.9152070
  Ag     -2.5712100     -1.5977759      4.9177011
  Ag     -2.8890000      0.0000000      0.0000000
  Ag     -5.7780000      0.0000000      0.0000000
  Ag     -4.1803830      2.0895016     -1.5181117
  Ag     -4.1861610      2.0914523      1.5122503
  Ag     -2.5885440      4.1809539     -0.0058614
  Ag     -4.1803830     -0.7981185     -2.4563565
  Ag     -2.5885440      1.2864113     -3.9781347
  Ag     -4.1803830     -2.5827660     -0.0000001
  Ag     -2.5885440     -3.3859079     -2.4527612
  Ag     -4.1803830     -0.7981188      2.4563564
  Ag     -2.5885440     -3.3790176      2.4622448
  Ag     -2.5885440      1.2975600      3.9745122
 end
END

property
 aoresponse
end

task dft property

================================================================================


                                         
                                         


             Northwest Computational Chemistry Package (NWChem) 7.0.0
             --------------------------------------------------------


                    Environmental Molecular Sciences Laboratory
                       Pacific Northwest National Laboratory
                                Richland, WA 99352

                              Copyright (c) 1994-2019
                       Pacific Northwest National Laboratory
                            Battelle Memorial Institute

             NWChem is an open-source computational chemistry package
                        distributed under the terms of the
                      Educational Community License (ECL) 2.0
             A copy of the license is included with this distribution
                              in the LICENSE.TXT file

                                  ACKNOWLEDGMENT
                                  --------------

            This software and its documentation were developed at the
            EMSL at Pacific Northwest National Laboratory, a multiprogram
            national laboratory, operated for the U.S. Department of Energy
            by Battelle under Contract Number DE-AC05-76RL01830. Support
            for this work was provided by the Department of Energy Office
            of Biological and Environmental Research, Office of Basic
            Energy Sciences, and the Office of Advanced Scientific Computing.


           Job information
           ---------------

    hostname        = Jeffreys-MacBook-Pro.local
    program         = /Users/jeffreybecca/Projects/nwchem-7.0.0/bin/MACX64/nwchem
    date            = Fri Oct 16 14:50:33 2020

    compiled        = Fri_Oct_16_13:37:44_2020
    source          = /Users/jeffreybecca/Projects/nwchem-7.0.0
    nwchem branch   = 7.0.0
    nwchem revision = nwchem_on_git-1431-g41063c398
    ga revision     = 5.7.1
    use scalapack   = F
    input           = dimqm_static_pol.nw
    prefix          = dimqm_static_pol.
    data base       = ./dimqm_static_pol.db
    status          = startup
    nproc           =        1
    time left       =     -1s



           Memory information
           ------------------

    heap     =   13107196 doubles =    100.0 Mbytes
    stack    =   13107201 doubles =    100.0 Mbytes
    global   =   26214400 doubles =    200.0 Mbytes (distinct from heap & stack)
    total    =   52428797 doubles =    400.0 Mbytes
    verify   = yes
    hardfail = no 


           Directory information
           ---------------------

  0 permanent = .
  0 scratch   = .




                                NWChem Input Module
                                -------------------


                                     H2O on Ag
                                     ---------

 Scaling coordinates for geometry "geometry" by  1.889725989
 (inverse scale =  0.529177249)

 Turning off AUTOSYM since
 SYMMETRY directive was detected!



                             Geometry "geometry" -> ""
                             -------------------------

 Output coordinates in angstroms (scale by  1.889725989 to convert to a.u.)

  No.       Tag          Charge          X              Y              Z
 ---- ---------------- ---------- -------------- -------------- --------------
    1 O                    8.0000     8.77800000     0.00000000     0.00000000
    2 H                    1.0000     9.30230000     0.00000000     0.75456554
    3 H                    1.0000     9.30230000     0.00000000    -0.75456554

      Atomic Mass 
      ----------- 

      O                 15.994910
      H                  1.007825


 Effective nuclear repulsion energy (a.u.)       9.5653912874

            Nuclear Dipole moment (a.u.) 
            ----------------------------
        X                 Y               Z
 ---------------- ---------------- ----------------
   167.8617139492     0.0000000000     0.0000000000


            XYZ format geometry
            -------------------
     3
 geometry
 O                     8.77800000     0.00000000     0.00000000
 H                     9.30230000     0.00000000     0.75456554
 H                     9.30230000     0.00000000    -0.75456554

 ==============================================================================
                                internuclear distances
 ------------------------------------------------------------------------------
       center one      |      center two      | atomic units |  angstroms
 ------------------------------------------------------------------------------
    2 H                |   1 O                |     1.73635  |     0.91884
    3 H                |   1 O                |     1.73635  |     0.91884
 ------------------------------------------------------------------------------
                         number of included internuclear distances:          2
 ==============================================================================



 ==============================================================================
                                 internuclear angles
 ------------------------------------------------------------------------------
        center 1       |       center 2       |       center 3       |  degrees
 ------------------------------------------------------------------------------
    2 H                |   1 O                |   3 H                |   110.41
 ------------------------------------------------------------------------------
                            number of included internuclear angles:          1
 ==============================================================================





 Summary of "ao basis" -> "" (spherical)
 ------------------------------------------------------------------------------
       Tag                 Description            Shells   Functions and Types
 ---------------- ------------------------------  ------  ---------------------
 *                           6-311G                   on all atoms 


                    0  ldimqm value before rt_put  T
 Start Input Read
                              NWChem Property Module
                              ----------------------


                                     H2O on Ag


                                 NWChem DFT Module
                                 -----------------


                                     H2O on Ag


                      Basis "ao basis" -> "ao basis" (spherical)
                      -----
  O (Oxygen)
  ----------
            Exponent  Coefficients 
       -------------- ---------------------------------------------------------
  1 S  8.58850000E+03  0.001895
  1 S  1.29723000E+03  0.014386
  1 S  2.99296000E+02  0.070732
  1 S  8.73771000E+01  0.240001
  1 S  2.56789000E+01  0.594797
  1 S  3.74004000E+00  0.280802

  2 S  4.21175000E+01  0.113889
  2 S  9.62837000E+00  0.920811
  2 S  2.85332000E+00 -0.003274

  3 P  4.21175000E+01  0.036511
  3 P  9.62837000E+00  0.237153
  3 P  2.85332000E+00  0.819702

  4 S  9.05661000E-01  1.000000

  5 P  9.05661000E-01  1.000000

  6 S  2.55611000E-01  1.000000

  7 P  2.55611000E-01  1.000000

  H (Hydrogen)
  ------------
            Exponent  Coefficients 
       -------------- ---------------------------------------------------------
  1 S  3.38650000E+01  0.025494
  1 S  5.09479000E+00  0.190373
  1 S  1.15879000E+00  0.852161

  2 S  3.25840000E-01  1.000000

  3 S  1.02741000E-01  1.000000



 Summary of "ao basis" -> "ao basis" (spherical)
 ------------------------------------------------------------------------------
       Tag                 Description            Shells   Functions and Types
 ---------------- ------------------------------  ------  ---------------------
 O                           6-311G                  7       13   4s3p
 H                           6-311G                  3        3   3s




 Summary of "ao basis" -> "ao basis" (spherical)
 ------------------------------------------------------------------------------
       Tag                 Description            Shells   Functions and Types
 ---------------- ------------------------------  ------  ---------------------
 O                           6-311G                  7       13   4s3p
 H                           6-311G                  3        3   3s


  Caching 1-el integrals 

            General Information
            -------------------
          SCF calculation type: DFT
          Wavefunction type:  closed shell.
          No. of atoms     :     3
          No. of electrons :    10
           Alpha electrons :     5
            Beta electrons :     5
          Charge           :     0
          Spin multiplicity:     1
          Use of symmetry is: off; symmetry adaption is: off
          Maximum number of iterations: 200
          AO basis - number of functions:    19
                     number of shells:    13
          Convergence on energy requested:  1.00D-06
          Convergence on density requested:  1.00D-05
          Convergence on gradient requested:  5.00D-04

              XC Information
              --------------
                         B3LYP Method XC Potential
                     Hartree-Fock (Exact) Exchange  0.200          
                        Slater Exchange Functional  0.800 local    
                    Becke 1988 Exchange Functional  0.720 non-local
              Lee-Yang-Parr Correlation Functional  0.810          
                  VWN I RPA Correlation Functional  0.190 local    

             Grid Information
             ----------------
          Grid used for XC integration:  medium    
          Radial quadrature: Mura-Knowles        
          Angular quadrature: Lebedev. 
          Tag              B.-S. Rad. Rad. Pts. Rad. Cut. Ang. Pts.
          ---              ---------- --------- --------- ---------
          O                   0.60       49           5.0       434
          H                   0.35       45           7.0       434
          Grid pruning is: on 
          Number of quadrature shells:   139
          Spatial weights used:  Erf1

          Convergence Information
          -----------------------
          Convergence aids based upon iterative change in 
          total energy or number of iterations. 
          Levelshifting, if invoked, occurs when the 
          HOMO/LUMO gap drops below (HL_TOL):  1.00D-02
          DIIS, if invoked, will attempt to extrapolate 
          using up to (NFOCK): 10 stored Fock matrices.

                    Damping( 0%)  Levelshifting(0.5)       DIIS
                  --------------- ------------------- ---------------
          dE  on:    start            ASAP                start   
          dE off:    2 iters        200 iters           200 iters 


      Screening Tolerance Information
      -------------------------------
          Density screening/tol_rho:  1.00D-10
          AO Gaussian exp screening on grid/accAOfunc:  14
          CD Gaussian exp screening on grid/accCDfunc:  20
          XC Gaussian exp screening on grid/accXCfunc:  20
          Schwarz screening/accCoul:  1.00D-08


      Superposition of Atomic Density Guess
      -------------------------------------

 Sum of atomic energies:         -75.77574266

      Non-variational initial energy
      ------------------------------

 Total energy =     -76.008172
 1-e energy   =    -122.354579
 2-e energy   =      36.781016
 HOMO         =      -0.485304
 LUMO         =       0.080417

   Time after variat. SCF:      0.1
   Time prior to 1st pass:      0.1

 #quartets = 4.186D+03 #integrals = 1.018D+04 #direct =  0.0% #cached =100.0%


 Integral file          = ./dimqm_static_pol.aoints.0
 Record size in doubles =    65536    No. of integs per rec  =    43688
 Max. records in memory =        2    Max. records in file   =  1575593
 No. of bits per label  =        8    No. of bits per value  =       64


 Grid_pts file          = ./dimqm_static_pol.gridpts.0
 Record size in doubles =  12289        No. of grid_pts per rec  =   3070
 Max. records in memory =     23        Max. recs in file   =   8402484


           Memory utilization after 1st SCF pass: 
           Heap Space remaining (MW):       12.69            12692068
          Stack Space remaining (MW):       13.11            13106948

   convergence    iter        energy       DeltaE   RMS-Dens  Diis-err    time
 ---------------- ----- ----------------- --------- --------- ---------  ------
 d= 0,ls=0.0,diis     1    -76.3701942792 -8.59D+01  3.04D-02  4.20D-01     0.3
 Entering DIM/QM Main
 Allocated local arrays
 Pulled coords
 Allocated heap arrays
 Start dimqm_prep
 Start EqmN
 End EqmN
 DIM/QM First Cycle Prep Done
 User requested tolerance below   1.0000000000000000E-004
 Setting pre-seed tolerance to   1.0000000000000000E-004
 Entering EqmE
 Exiting EqmE
 Begin dimqm_f2d
 Begin dimqm_iterative
 DIM/QM Seeding QMR
 Start seed QMR routine
 Tol:    1.0000000000000000E-004
 Start MatvecReal routine
 End MatvecReal Routine
 Res_nrm_upper_bound:  0.44399614367245255     
 Iteration                    1
 Time (s):   4.6787989558652043E-003
 Start MatvecReal routine
 End MatvecReal Routine
 Res_nrm_upper_bound:  0.28419626682562255     
 Iteration                    2
 Time (s):   4.5731780119240284E-003
 Start MatvecReal routine
 End MatvecReal Routine
 Res_nrm_upper_bound:  0.17844317471421176     
 Iteration                    3
 Time (s):   4.1398620232939720E-003
 Start MatvecReal routine
 End MatvecReal Routine
 Res_nrm_upper_bound:  0.11226892198646383     
 Iteration                    4
 Time (s):   4.1313369292765856E-003
 Start MatvecReal routine
 End MatvecReal Routine
 Res_nrm_upper_bound:   7.7726719636218924E-002
 Iteration                    5
 Time (s):   4.3358909897506237E-003
 Start MatvecReal routine
 End MatvecReal Routine
 Res_nrm_upper_bound:   5.5698425722074098E-002
 Iteration                    6
 Time (s):   5.5649649584665895E-003
 Start MatvecReal routine
 End MatvecReal Routine
 Res_nrm_upper_bound:   2.9240021364973563E-002
 Iteration                    7
 Time (s):   4.2811300372704864E-003
 Start MatvecReal routine
 End MatvecReal Routine
 Res_nrm_upper_bound:   1.7813234916586481E-002
 Iteration                    8
 Time (s):   4.4521220261231065E-003
 Start MatvecReal routine
 End MatvecReal Routine
 Res_nrm_upper_bound:   1.1285160493302313E-002
 Iteration                    9
 Time (s):   4.2569189099594951E-003
 Start MatvecReal routine
 End MatvecReal Routine
 Res_nrm_upper_bound:   6.6653560042866490E-003
 Iteration                   10
 Time (s):   4.0937300072982907E-003
 Start MatvecReal routine
 End MatvecReal Routine
 Res_nrm_upper_bound:   4.4617333097198095E-003
 Iteration                   11
 Time (s):   4.0546479867771268E-003
 Start MatvecReal routine
 End MatvecReal Routine
 Res_nrm_upper_bound:   1.8304826454437566E-003
 Iteration                   12
 Time (s):   4.8804529942572117E-003
 Start MatvecReal routine
 End MatvecReal Routine
 Start MatvecReal routine
 End MatvecReal Routine
 Res_nrm:    2.6392082489368960E-004
 Iteration                   13
 Time (s):   7.3541760211810470E-003
 Start MatvecReal routine
 End MatvecReal Routine
 Start MatvecReal routine
 End MatvecReal Routine
 Res_nrm:    8.6509560943262849E-005
 Iteration                   14
 Time (s):   7.4710029875859618E-003
 End seed QMR Routine
 DIM/QM dipoles converged in                   14 iterations
 Took   7.0083735045045614E-002 seconds
 
 End dimqm_iterative
 End dimqm_f2d
 Induced dipoles:
  0.97982452819961552       -2.2033585736402797E-004  -2.7879719888781671E-004
 
 Max error in dipoles:  0.45116783770764091     
 
 Saved dipoles as old dipoles
 End dimqm_main
  *** dim_grid_quadv0: calc_type:                    1
  *** dim_grid_quadv0: grid_written: T
  *** dim_grid_quadv0: do_scf: T
  *** dim_grid_quadv0: n_per_rec:                 3070
 d= 0,ls=0.0,diis     2    -76.3715161055 -1.32D-03  1.55D-02  4.77D-01     0.5
 Entering DIM/QM Main
 Allocated local arrays
 Pulled coords
 Entering EqmE
 Exiting EqmE
 Begin dimqm_f2d
 Begin dimqm_iterative
 DIM/QM Seeding QMR
 Start seed QMR routine
 Tol:    9.9999999999999995E-007
 Start MatvecReal routine
 End MatvecReal Routine
 Res_nrm_upper_bound:  0.43920768477726058     
 Iteration                    1
 Time (s):   5.6285969913005829E-003
 Start MatvecReal routine
 End MatvecReal Routine
 Res_nrm_upper_bound:  0.28351096344386795     
 Iteration                    2
 Time (s):   6.1710930895060301E-003
 Start MatvecReal routine
 End MatvecReal Routine
 Res_nrm_upper_bound:  0.17694043037222396     
 Iteration                    3
 Time (s):   5.5700399680063128E-003
 Start MatvecReal routine
 End MatvecReal Routine
 Res_nrm_upper_bound:  0.11187906223225358     
 Iteration                    4
 Time (s):   5.1948939217254519E-003
 Start MatvecReal routine
 End MatvecReal Routine
 Res_nrm_upper_bound:   7.6982338398916259E-002
 Iteration                    5
 Time (s):   5.6224999716505408E-003
 Start MatvecReal routine
 End MatvecReal Routine
 Res_nrm_upper_bound:   5.5525502178222941E-002
 Iteration                    6
 Time (s):   4.4572909828275442E-003
 Start MatvecReal routine
 End MatvecReal Routine
 Res_nrm_upper_bound:   2.8984934056936182E-002
 Iteration                    7
 Time (s):   5.3852520650252700E-003
 Start MatvecReal routine
 End MatvecReal Routine
 Res_nrm_upper_bound:   1.7561816321140716E-002
 Iteration                    8
 Time (s):   5.8205149834975600E-003
 Start MatvecReal routine
 End MatvecReal Routine
 Res_nrm_upper_bound:   1.1195582943436299E-002
 Iteration                    9
 Time (s):   5.0734080141410232E-003
 Start MatvecReal routine
 End MatvecReal Routine
 Res_nrm_upper_bound:   6.5800563052213308E-003
 Iteration                   10
 Time (s):   4.6869239304214716E-003
 Start MatvecReal routine
 End MatvecReal Routine
 Res_nrm_upper_bound:   4.4438222339541651E-003
 Iteration                   11
 Time (s):   5.0200580153614283E-003
 Start MatvecReal routine
 End MatvecReal Routine
 Res_nrm_upper_bound:   1.8063190190226112E-003
 Iteration                   12
 Time (s):   4.4733820250257850E-003
 Start MatvecReal routine
 End MatvecReal Routine
 Res_nrm_upper_bound:   9.7397181442015004E-004
 Iteration                   13
 Time (s):   4.8054500948637724E-003
 Start MatvecReal routine
 End MatvecReal Routine
 Res_nrm_upper_bound:   3.2225504653959929E-004
 Iteration                   14
 Time (s):   4.5122260926291347E-003
 Start MatvecReal routine
 End MatvecReal Routine
 Res_nrm_upper_bound:   1.7715589250775173E-004
 Iteration                   15
 Time (s):   4.7163070412352681E-003
 Start MatvecReal routine
 End MatvecReal Routine
 Res_nrm_upper_bound:   1.2352093974030251E-004
 Iteration                   16
 Time (s):   4.6865909826010466E-003
 Start MatvecReal routine
 End MatvecReal Routine
 Res_nrm_upper_bound:   4.3049368710649686E-005
 Iteration                   17
 Time (s):   4.7725470503792167E-003
 Start MatvecReal routine
 End MatvecReal Routine
 Res_nrm_upper_bound:   2.2993661514017343E-005
 Iteration                   18
 Time (s):   4.5705850934609771E-003
 Start MatvecReal routine
 End MatvecReal Routine
 Res_nrm_upper_bound:   1.1673330116495571E-005
 Iteration                   19
 Time (s):   4.7398220049217343E-003
 Start MatvecReal routine
 End MatvecReal Routine
 Start MatvecReal routine
 End MatvecReal Routine
 Res_nrm:    1.3734191801668220E-006
 Iteration                   20
 Time (s):   1.0831373976543546E-002
 Start MatvecReal routine
 End MatvecReal Routine
 Start MatvecReal routine
 End MatvecReal Routine
 Res_nrm:    6.0627824568848224E-007
 Iteration                   21
 Time (s):   9.1127989580854774E-003
 End seed QMR Routine
 DIM/QM dipoles converged in                   21 iterations
 Took  0.11863384302705526      seconds
 
 End dimqm_iterative
 End dimqm_f2d
 Induced dipoles:
   1.2294812629790739       -2.7707811144782942E-004  -3.4321007278458006E-004
 
 Max error in dipoles:  0.10870272487198573     
 
 Saved dipoles as old dipoles
 End dimqm_main
  *** dim_grid_quadv0: calc_type:                    1
  *** dim_grid_quadv0: grid_written: T
  *** dim_grid_quadv0: do_scf: T
  *** dim_grid_quadv0: n_per_rec:                 3070
 d= 0,ls=0.0,diis     3    -76.4096215975 -3.81D-02  2.03D-03  1.48D-02     0.8
 Entering DIM/QM Main
 Allocated local arrays
 Pulled coords
 Entering EqmE
 Exiting EqmE
 Begin dimqm_f2d
 Begin dimqm_iterative
 DIM/QM Seeding QMR
 Start seed QMR routine
 Tol:    9.9999999999999995E-007
 Start MatvecReal routine
 End MatvecReal Routine
 Res_nrm_upper_bound:  0.43934287473726424     
 Iteration                    1
 Time (s):   4.7580329701304436E-003
 Start MatvecReal routine
 End MatvecReal Routine
 Res_nrm_upper_bound:  0.28353361951766076     
 Iteration                    2
 Time (s):   4.9095139838755131E-003
 Start MatvecReal routine
 End MatvecReal Routine
 Res_nrm_upper_bound:  0.17698288121860778     
 Iteration                    3
 Time (s):   4.5350920408964157E-003
 Start MatvecReal routine
 End MatvecReal Routine
 Res_nrm_upper_bound:  0.11189114151804315     
 Iteration                    4
 Time (s):   4.8130509676411748E-003
 Start MatvecReal routine
 End MatvecReal Routine
 Res_nrm_upper_bound:   7.7004478163208406E-002
 Iteration                    5
 Time (s):   5.7345459936186671E-003
 Start MatvecReal routine
 End MatvecReal Routine
 Res_nrm_upper_bound:   5.5531278416628971E-002
 Iteration                    6
 Time (s):   5.1279370673000813E-003
 Start MatvecReal routine
 End MatvecReal Routine
 Res_nrm_upper_bound:   2.8991028837604346E-002
 Iteration                    7
 Time (s):   5.9024889487773180E-003
 Start MatvecReal routine
 End MatvecReal Routine
 Res_nrm_upper_bound:   1.7569696951014045E-002
 Iteration                    8
 Time (s):   5.9553199680522084E-003
 Start MatvecReal routine
 End MatvecReal Routine
 Res_nrm_upper_bound:   1.1198030788531869E-002
 Iteration                    9
 Time (s):   6.8297609686851501E-003
 Start MatvecReal routine
 End MatvecReal Routine
 Res_nrm_upper_bound:   6.5825885189616466E-003
 Iteration                   10
 Time (s):   5.9426809893921018E-003
 Start MatvecReal routine
 End MatvecReal Routine
 Res_nrm_upper_bound:   4.4444116487593697E-003
 Iteration                   11
 Time (s):   5.5925929918885231E-003
 Start MatvecReal routine
 End MatvecReal Routine
 Res_nrm_upper_bound:   1.8060187953200984E-003
 Iteration                   12
 Time (s):   5.3108059801161289E-003
 Start MatvecReal routine
 End MatvecReal Routine
 Res_nrm_upper_bound:   9.7407284685136083E-004
 Iteration                   13
 Time (s):   6.2566079432144761E-003
 Start MatvecReal routine
 End MatvecReal Routine
 Res_nrm_upper_bound:   3.2261147920250498E-004
 Iteration                   14
 Time (s):   5.3982100216671824E-003
 Start MatvecReal routine
 End MatvecReal Routine
 Res_nrm_upper_bound:   1.7720130939076153E-004
 Iteration                   15
 Time (s):   4.6344910515472293E-003
 Start MatvecReal routine
 End MatvecReal Routine
 Res_nrm_upper_bound:   1.2358656378858981E-004
 Iteration                   16
 Time (s):   4.8457129159942269E-003
 Start MatvecReal routine
 End MatvecReal Routine
 Res_nrm_upper_bound:   4.3042262170906118E-005
 Iteration                   17
 Time (s):   4.5993200037628412E-003
 Start MatvecReal routine
 End MatvecReal Routine
 Res_nrm_upper_bound:   2.2994862094488506E-005
 Iteration                   18
 Time (s):   6.6027339780703187E-003
 Start MatvecReal routine
 End MatvecReal Routine
 Res_nrm_upper_bound:   1.1671354835904485E-005
 Iteration                   19
 Time (s):   5.9771230444312096E-003
 Start MatvecReal routine
 End MatvecReal Routine
 Start MatvecReal routine
 End MatvecReal Routine
 Res_nrm:    1.3731570514908602E-006
 Iteration                   20
 Time (s):   9.4925530720502138E-003
 Start MatvecReal routine
 End MatvecReal Routine
 Start MatvecReal routine
 End MatvecReal Routine
 Res_nrm:    6.0667167847720536E-007
 Iteration                   21
 Time (s):   8.2737650955095887E-003
 End seed QMR Routine
 DIM/QM dipoles converged in                   21 iterations
 Took  0.12418999499641359      seconds
 
 End dimqm_iterative
 End dimqm_f2d
 Induced dipoles:
   1.2321636290101836       -2.7781780525384448E-004  -3.4464696012641294E-004
 
 Max error in dipoles:   1.3830769484410865E-003
 
 Saved dipoles as old dipoles
 End dimqm_main
  *** dim_grid_quadv0: calc_type:                    1
  *** dim_grid_quadv0: grid_written: T
  *** dim_grid_quadv0: do_scf: T
  *** dim_grid_quadv0: n_per_rec:                 3070
 d= 0,ls=0.0,diis     4    -76.4106710280 -1.05D-03  1.87D-04  4.04D-05     1.1
 Entering DIM/QM Main
 Allocated local arrays
 Pulled coords
 Entering EqmE
 Exiting EqmE
 Begin dimqm_f2d
 Begin dimqm_iterative
 DIM/QM Seeding QMR
 Start seed QMR routine
 Tol:    9.9999999999999995E-007
 Start MatvecReal routine
 End MatvecReal Routine
 Res_nrm_upper_bound:  0.43937630843373693     
 Iteration                    1
 Time (s):   5.3066920954734087E-003
 Start MatvecReal routine
 End MatvecReal Routine
 Res_nrm_upper_bound:  0.28353874135128088     
 Iteration                    2
 Time (s):   5.0205159932374954E-003
 Start MatvecReal routine
 End MatvecReal Routine
 Res_nrm_upper_bound:  0.17699339302500380     
 Iteration                    3
 Time (s):   5.5288119474425912E-003
 Start MatvecReal routine
 End MatvecReal Routine
 Res_nrm_upper_bound:  0.11189384500274872     
 Iteration                    4
 Time (s):   6.3529330072924495E-003
 Start MatvecReal routine
 End MatvecReal Routine
 Res_nrm_upper_bound:   7.7010014162540649E-002
 Iteration                    5
 Time (s):   6.7681770306080580E-003
 Start MatvecReal routine
 End MatvecReal Routine
 Res_nrm_upper_bound:   5.5532599632136873E-002
 Iteration                    6
 Time (s):   6.2858349410817027E-003
 Start MatvecReal routine
 End MatvecReal Routine
 Res_nrm_upper_bound:   2.8992445875833474E-002
 Iteration                    7
 Time (s):   5.4146660258993506E-003
 Start MatvecReal routine
 End MatvecReal Routine
 Res_nrm_upper_bound:   1.7571679092420370E-002
 Iteration                    8
 Time (s):   4.4072959572076797E-003
 Start MatvecReal routine
 End MatvecReal Routine
 Res_nrm_upper_bound:   1.1198615774370362E-002
 Iteration                    9
 Time (s):   4.2866260046139359E-003
 Start MatvecReal routine
 End MatvecReal Routine
 Res_nrm_upper_bound:   6.5832161115447277E-003
 Iteration                   10
 Time (s):   4.2381159728392959E-003
 Start MatvecReal routine
 End MatvecReal Routine
 Res_nrm_upper_bound:   4.4445477282278774E-003
 Iteration                   11
 Time (s):   4.0160459466278553E-003
 Start MatvecReal routine
 End MatvecReal Routine
 Res_nrm_upper_bound:   1.8059375926944528E-003
 Iteration                   12
 Time (s):   4.1896139737218618E-003
 Start MatvecReal routine
 End MatvecReal Routine
 Res_nrm_upper_bound:   9.7409911252481181E-004
 Iteration                   13
 Time (s):   4.2764579411596060E-003
 Start MatvecReal routine
 End MatvecReal Routine
 Res_nrm_upper_bound:   3.2269737675959617E-004
 Iteration                   14
 Time (s):   4.0826939512044191E-003
 Start MatvecReal routine
 End MatvecReal Routine
 Res_nrm_upper_bound:   1.7721364504383403E-004
 Iteration                   15
 Time (s):   4.0683510014787316E-003
 Start MatvecReal routine
 End MatvecReal Routine
 Res_nrm_upper_bound:   1.2360372280726349E-004
 Iteration                   16
 Time (s):   4.4772420078516006E-003
 Start MatvecReal routine
 End MatvecReal Routine
 Res_nrm_upper_bound:   4.3040734033288960E-005
 Iteration                   17
 Time (s):   4.4455140596255660E-003
 Start MatvecReal routine
 End MatvecReal Routine
 Res_nrm_upper_bound:   2.2995300746713041E-005
 Iteration                   18
 Time (s):   4.1008499683812261E-003
 Start MatvecReal routine
 End MatvecReal Routine
 Res_nrm_upper_bound:   1.1671130908022590E-005
 Iteration                   19
 Time (s):   4.0149940177798271E-003
 Start MatvecReal routine
 End MatvecReal Routine
 Start MatvecReal routine
 End MatvecReal Routine
 Res_nrm:    1.3731043095049325E-006
 Iteration                   20
 Time (s):   7.4337560217827559E-003
 Start MatvecReal routine
 End MatvecReal Routine
 Start MatvecReal routine
 End MatvecReal Routine
 Res_nrm:    6.0677117485307642E-007
 Iteration                   21
 Time (s):   7.3520679725334048E-003
 End seed QMR Routine
 DIM/QM dipoles converged in                   21 iterations
 Took  0.10874167596921325      seconds
 
 End dimqm_iterative
 End dimqm_f2d
 Induced dipoles:
   1.2329225664518626       -2.7803205802178063E-004  -3.4484011695568983E-004
 
 Max error in dipoles:   3.9246677365767368E-004
 
 Saved dipoles as old dipoles
 End dimqm_main
  *** dim_grid_quadv0: calc_type:                    1
  *** dim_grid_quadv0: grid_written: T
  *** dim_grid_quadv0: do_scf: T
  *** dim_grid_quadv0: n_per_rec:                 3070
 d= 0,ls=0.0,diis     5    -76.4106703137  7.14D-07  2.02D-05  3.35D-08     1.4
 Entering DIM/QM Main
 Allocated local arrays
 Pulled coords
 Entering EqmE
 Exiting EqmE
 Begin dimqm_f2d
 Begin dimqm_iterative
 DIM/QM Seeding QMR
 Start seed QMR routine
 Tol:    9.9999999999999995E-007
 Start MatvecReal routine
 End MatvecReal Routine
 Res_nrm_upper_bound:  0.43937684427803630     
 Iteration                    1
 Time (s):   4.2219569440931082E-003
 Start MatvecReal routine
 End MatvecReal Routine
 Res_nrm_upper_bound:  0.28353884547668140     
 Iteration                    2
 Time (s):   4.1610019979998469E-003
 Start MatvecReal routine
 End MatvecReal Routine
 Res_nrm_upper_bound:  0.17699355178763709     
 Iteration                    3
 Time (s):   4.2206710204482079E-003
 Start MatvecReal routine
 End MatvecReal Routine
 Res_nrm_upper_bound:  0.11189389374569057     
 Iteration                    4
 Time (s):   4.1712039383128285E-003
 Start MatvecReal routine
 End MatvecReal Routine
 Res_nrm_upper_bound:   7.7010104462046966E-002
 Iteration                    5
 Time (s):   4.0029520168900490E-003
 Start MatvecReal routine
 End MatvecReal Routine
 Res_nrm_upper_bound:   5.5532625294626506E-002
 Iteration                    6
 Time (s):   4.2121190344914794E-003
 Start MatvecReal routine
 End MatvecReal Routine
 Res_nrm_upper_bound:   2.8992459132766255E-002
 Iteration                    7
 Time (s):   3.8858320331200957E-003
 Start MatvecReal routine
 End MatvecReal Routine
 Res_nrm_upper_bound:   1.7571711400922178E-002
 Iteration                    8
 Time (s):   5.0696569960564375E-003
 Start MatvecReal routine
 End MatvecReal Routine
 Res_nrm_upper_bound:   1.1198621294406054E-002
 Iteration                    9
 Time (s):   3.8491709856316447E-003
 Start MatvecReal routine
 End MatvecReal Routine
 Res_nrm_upper_bound:   6.5832244983716004E-003
 Iteration                   10
 Time (s):   6.2280310085043311E-003
 Start MatvecReal routine
 End MatvecReal Routine
 Res_nrm_upper_bound:   4.4445501868716486E-003
 Iteration                   11
 Time (s):   4.7933829482644796E-003
 Start MatvecReal routine
 End MatvecReal Routine
 Res_nrm_upper_bound:   1.8059264020388001E-003
 Iteration                   12
 Time (s):   4.9005240434780717E-003
 Start MatvecReal routine
 End MatvecReal Routine
 Res_nrm_upper_bound:   9.7409643139042255E-004
 Iteration                   13
 Time (s):   4.2209919774904847E-003
 Start MatvecReal routine
 End MatvecReal Routine
 Res_nrm_upper_bound:   3.2269848922768739E-004
 Iteration                   14
 Time (s):   4.1073149768635631E-003
 Start MatvecReal routine
 End MatvecReal Routine
 Res_nrm_upper_bound:   1.7721352074985682E-004
 Iteration                   15
 Time (s):   4.0826770709827542E-003
 Start MatvecReal routine
 End MatvecReal Routine
 Res_nrm_upper_bound:   1.2360380896834849E-004
 Iteration                   16
 Time (s):   4.2427200824022293E-003
 Start MatvecReal routine
 End MatvecReal Routine
 Res_nrm_upper_bound:   4.3040084823512331E-005
 Iteration                   17
 Time (s):   4.0877059800550342E-003
 Start MatvecReal routine
 End MatvecReal Routine
 Res_nrm_upper_bound:   2.2995162659098317E-005
 Iteration                   18
 Time (s):   4.0886480128392577E-003
 Start MatvecReal routine
 End MatvecReal Routine
 Res_nrm_upper_bound:   1.1670958430973021E-005
 Iteration                   19
 Time (s):   4.1203709552064538E-003
 Start MatvecReal routine
 End MatvecReal Routine
 Start MatvecReal routine
 End MatvecReal Routine
 Res_nrm:    1.3730889296553263E-006
 Iteration                   20
 Time (s):   8.5440620314329863E-003
 Start MatvecReal routine
 End MatvecReal Routine
 Start MatvecReal routine
 End MatvecReal Routine
 Res_nrm:    6.0676641340543389E-007
 Iteration                   21
 Time (s):   8.2622090121731162E-003
 End seed QMR Routine
 DIM/QM dipoles converged in                   21 iterations
 Took  0.10217965499032289      seconds
 
 End dimqm_iterative
 End dimqm_f2d
 Induced dipoles:
   1.2330562638973128       -2.7806545075588105E-004  -3.4489835541322116E-004
 
 Max error in dipoles:   6.1405503615219459E-005
 
 Saved dipoles as old dipoles
 End dimqm_main
  *** dim_grid_quadv0: calc_type:                    1
  *** dim_grid_quadv0: grid_written: T
  *** dim_grid_quadv0: do_scf: T
  *** dim_grid_quadv0: n_per_rec:                 3070
 d= 0,ls=0.0,diis     6    -76.4106695632  7.51D-07  1.83D-06  9.70D-10     1.7


         Total DFT energy =      -76.414164094316
      One electron energy =     -123.803928722693
           Coulomb energy =       47.234217695086
    Exchange-Corr. energy =       -9.406349822943
 Nuclear repulsion energy =        9.565391287357

 Numeric. integr. density =       10.000000845546

     Total iterative time =      1.6s


 Entering DIM/QM Main
 Allocated local arrays
 Pulled coords
 Entering EqmE
 Exiting EqmE
 Begin dimqm_f2d
 Begin dimqm_iterative
 DIM/QM Seeding QMR
 Start seed QMR routine
 Tol:    9.9999999999999995E-007
 Start MatvecReal routine
 End MatvecReal Routine
 Res_nrm_upper_bound:  0.43937677210479081     
 Iteration                    1
 Time (s):   4.4606589945033193E-003
 Start MatvecReal routine
 End MatvecReal Routine
 Res_nrm_upper_bound:  0.28353883984540740     
 Iteration                    2
 Time (s):   5.9246380114927888E-003
 Start MatvecReal routine
 End MatvecReal Routine
 Res_nrm_upper_bound:  0.17699352771697421     
 Iteration                    3
 Time (s):   5.5487300269305706E-003
 Start MatvecReal routine
 End MatvecReal Routine
 Res_nrm_upper_bound:  0.11189389018973778     
 Iteration                    4
 Time (s):   5.4920309921726584E-003
 Start MatvecReal routine
 End MatvecReal Routine
 Res_nrm_upper_bound:   7.7010092252900522E-002
 Iteration                    5
 Time (s):   5.7647520443424582E-003
 Start MatvecReal routine
 End MatvecReal Routine
 Res_nrm_upper_bound:   5.5532623591643362E-002
 Iteration                    6
 Time (s):   5.2361409179866314E-003
 Start MatvecReal routine
 End MatvecReal Routine
 Res_nrm_upper_bound:   2.8992455471475831E-002
 Iteration                    7
 Time (s):   4.4911369914188981E-003
 Start MatvecReal routine
 End MatvecReal Routine
 Res_nrm_upper_bound:   1.7571706946750719E-002
 Iteration                    8
 Time (s):   5.4694470018148422E-003
 Start MatvecReal routine
 End MatvecReal Routine
 Res_nrm_upper_bound:   1.1198619667892058E-002
 Iteration                    9
 Time (s):   4.3750669574365020E-003
 Start MatvecReal routine
 End MatvecReal Routine
 Res_nrm_upper_bound:   6.5832229178964079E-003
 Iteration                   10
 Time (s):   4.3209280120208859E-003
 Start MatvecReal routine
 End MatvecReal Routine
 Res_nrm_upper_bound:   4.4445499773646292E-003
 Iteration                   11
 Time (s):   3.9288689149543643E-003
 Start MatvecReal routine
 End MatvecReal Routine
 Res_nrm_upper_bound:   1.8059254293579590E-003
 Iteration                   12
 Time (s):   3.9297970943152905E-003
 Start MatvecReal routine
 End MatvecReal Routine
 Res_nrm_upper_bound:   9.7409599380080068E-004
 Iteration                   13
 Time (s):   4.1064299875870347E-003
 Start MatvecReal routine
 End MatvecReal Routine
 Res_nrm_upper_bound:   3.2269828793662854E-004
 Iteration                   14
 Time (s):   3.8807109231129289E-003
 Start MatvecReal routine
 End MatvecReal Routine
 Res_nrm_upper_bound:   1.7721345103772349E-004
 Iteration                   15
 Time (s):   3.5945470444858074E-003
 Start MatvecReal routine
 End MatvecReal Routine
 Res_nrm_upper_bound:   1.2360375102332970E-004
 Iteration                   16
 Time (s):   4.0584360249340534E-003
 Start MatvecReal routine
 End MatvecReal Routine
 Res_nrm_upper_bound:   4.3040011941164509E-005
 Iteration                   17
 Time (s):   4.0329690091311932E-003
 Start MatvecReal routine
 End MatvecReal Routine
 Res_nrm_upper_bound:   2.2995143403676171E-005
 Iteration                   18
 Time (s):   4.1358780581504107E-003
 Start MatvecReal routine
 End MatvecReal Routine
 Res_nrm_upper_bound:   1.1670937113752183E-005
 Iteration                   19
 Time (s):   4.0307010058313608E-003
 Start MatvecReal routine
 End MatvecReal Routine
 Start MatvecReal routine
 End MatvecReal Routine
 Res_nrm:    1.3730872092363234E-006
 Iteration                   20
 Time (s):   7.2595389792695642E-003
 Start MatvecReal routine
 End MatvecReal Routine
 Start MatvecReal routine
 End MatvecReal Routine
 Res_nrm:    6.0676540637592618E-007
 Iteration                   21
 Time (s):   7.2718180017545819E-003
 End seed QMR Routine
 DIM/QM dipoles converged in                   21 iterations
 Took  0.10366583801805973      seconds
 
 End dimqm_iterative
 End dimqm_f2d
 Saved dipoles as old dipoles
                                     DIM/QM Results
                                     --------------
 
 
 ==================================================
 DIM/QM Energy
 --------------------------------------------------
 Polarization (Dipole, el.) =        -0.1138683612
 Polarization (Dipole, nuc) =         0.1103737698
              Total Energy  =        -0.0034945914
 ==================================================
 
 ElementsAg

 ==================================================
 DIM COORDINATES
 --------------------------------------------------
                 X           Y           Z
 --------------------------------------------------
     1 Ag     0.00000     0.00000     0.00000
     2 Ag     5.45942     0.00000     0.00000
     3 Ag    10.91884     0.00000     0.00000
     4 Ag     2.44036     4.88072     0.00000
     5 Ag     7.89978     4.88072     0.00000
     6 Ag     4.88072     9.76144     0.00000
     7 Ag     2.45128     1.51772     4.63505
     8 Ag     7.91070     1.51772     4.63505
     9 Ag     4.89164     6.39844     4.63505
    10 Ag     4.90256     3.03544     9.27009
    11 Ag    -2.42944     3.95262     2.87165
    12 Ag     0.02184     5.46488     7.50670
    13 Ag     0.01092     8.83334     2.87165
    14 Ag    -4.85888     7.90524     5.74331
    15 Ag     2.44036     1.50823    -4.64184
    16 Ag     7.89978     1.50823    -4.64184
    17 Ag     4.88072     3.01645    -9.28368
    18 Ag     4.89164     6.38542    -4.65297
    19 Ag    -2.42944     3.95253    -2.87177
    20 Ag     0.02184     8.82804    -2.87771
    21 Ag     0.01092     5.46076    -7.51362
    22 Ag    -4.85888     7.90506    -5.74355
    23 Ag     2.44036    -3.94859    -2.86882
    24 Ag     7.89978    -3.94859    -2.86882
    25 Ag     4.88072    -7.89717    -5.73763
    26 Ag     4.89164    -2.45203    -7.51074
    27 Ag    -2.42944    -1.50982    -4.64651
    28 Ag     0.02184    -0.00885    -9.28522
    29 Ag     0.01092    -5.45841    -7.51532
    30 Ag    -4.85888    -3.01964    -9.29302
    31 Ag     2.44036    -3.94859     2.86882
    32 Ag     7.89978    -3.94859     2.86882
    33 Ag     4.88072    -7.89717     5.73763
    34 Ag     4.89164    -7.90086     0.01108
    35 Ag    -2.42944    -4.88565     0.00007
    36 Ag     0.02184    -8.83351    -2.86087
    37 Ag     0.01092    -8.83424     2.86889
    38 Ag    -4.85888    -9.77130     0.00015
    39 Ag     4.89164    -2.43097     7.51759
    40 Ag    -2.42944    -1.50968     4.64655
    41 Ag     0.02184    -5.45056     7.51711
    42 Ag     0.01092    -0.00145     9.28840
    43 Ag    -4.85888    -3.01936     9.29311
    44 Ag    -5.45942     0.00000     0.00000
    45 Ag   -10.91884     0.00000     0.00000
    46 Ag    -7.89978     3.94859    -2.86882
    47 Ag    -7.91070     3.95227     2.85774
    48 Ag    -4.89164     7.90086    -0.01108
    49 Ag    -7.89978    -1.50823    -4.64184
    50 Ag    -4.89164     2.43097    -7.51759
    51 Ag    -7.89978    -4.88072    -0.00000
    52 Ag    -4.89164    -6.39844    -4.63505
    53 Ag    -7.89978    -1.50823     4.64184
    54 Ag    -4.89164    -6.38542     4.65297
    55 Ag    -4.89164     2.45203     7.51074

 ============================================================
 Total induced dipole moment in DIM system :
 ------------------------------------------------------------
  A.U.:        1.23306723     -0.00027807     -0.00034489
  Debye:       3.13414417     -0.00070678     -0.00087663
 ============================================================

 ==================================================
 Induced dipoles for each DIM atom :
 --------------------------------------------------
     ATOM                 Dipole
                 X           Y           Z
 --------------------------------------------------
     1 Ag     0.07363     0.00001     0.00001
     2 Ag     0.19889    -0.00007    -0.00007
     3 Ag     0.56171    -0.00005    -0.00011
     4 Ag     0.01824    -0.02052     0.00000
     5 Ag     0.02680    -0.06457    -0.00006
     6 Ag     0.00429    -0.02534     0.00001
     7 Ag     0.01186    -0.00629    -0.02011
     8 Ag     0.00991    -0.01920    -0.06536
     9 Ag     0.00307    -0.00602    -0.00639
    10 Ag     0.00192    -0.00783    -0.02465
    11 Ag     0.00834    -0.00796    -0.00692
    12 Ag     0.00479    -0.00538    -0.00453
    13 Ag     0.00526    -0.00607    -0.00483
    14 Ag     0.00706    -0.00747    -0.00551
    15 Ag     0.01187    -0.00627     0.02001
    16 Ag     0.00993    -0.01897     0.06500
    17 Ag     0.00184    -0.00778     0.02450
    18 Ag     0.00292    -0.00603     0.00633
    19 Ag     0.00832    -0.00800     0.00695
    20 Ag     0.00520    -0.00603     0.00492
    21 Ag     0.00466    -0.00536     0.00456
    22 Ag     0.00702    -0.00749     0.00553
    23 Ag     0.01580     0.01649     0.01251
    24 Ag     0.02040     0.05125     0.04138
    25 Ag     0.00337     0.02041     0.01526
    26 Ag     0.00247     0.00198     0.00966
    27 Ag     0.00770     0.00272     0.01024
    28 Ag     0.00465     0.00185     0.00687
    29 Ag     0.00500     0.00217     0.00726
    30 Ag     0.00691     0.00284     0.00892
    31 Ag     0.01583     0.01656    -0.01246
    32 Ag     0.02041     0.05132    -0.04130
    33 Ag     0.00337     0.02045    -0.01522
    34 Ag     0.00325     0.00791     0.00009
    35 Ag     0.00870     0.01054     0.00002
    36 Ag     0.00500     0.00741     0.00003
    37 Ag     0.00502     0.00742    -0.00006
    38 Ag     0.00709     0.00927     0.00001
    39 Ag     0.00242     0.00211    -0.00959
    40 Ag     0.00768     0.00274    -0.01024
    41 Ag     0.00497     0.00213    -0.00727
    42 Ag     0.00467     0.00186    -0.00689
    43 Ag     0.00691     0.00287    -0.00891
    44 Ag     0.02756     0.00001     0.00000
    45 Ag     0.01324     0.00001     0.00000
    46 Ag     0.00452    -0.00299     0.00211
    47 Ag     0.00454    -0.00300    -0.00209
    48 Ag     0.00404    -0.00323     0.00002
    49 Ag     0.00437     0.00119     0.00352
    50 Ag     0.00423    -0.00102     0.00354
    51 Ag     0.00461     0.00365    -0.00000
    52 Ag     0.00411     0.00263     0.00219
    53 Ag     0.00437     0.00119    -0.00351
    54 Ag     0.00410     0.00263    -0.00217
    55 Ag     0.00425    -0.00097    -0.00354
 ==================================================

 End dimqm_main

                       DFT Final Molecular Orbital Analysis
                       ------------------------------------

 Vector    1  Occ=2.000000D+00  E=-1.911863D+01
              MO Center=  8.8D+00, -4.1D-10, -3.2D-10, r^2= 1.5D-02
   Bfn.  Coefficient  Atom+Function         Bfn.  Coefficient  Atom+Function  
  ----- ------------  ---------------      ----- ------------  ---------------
     1      0.551262  1 O  s                  2      0.469926  1 O  s          

 Vector    2  Occ=2.000000D+00  E=-1.056131D+00
              MO Center=  9.0D+00, -1.9D-07, -4.6D-07, r^2= 4.9D-01
   Bfn.  Coefficient  Atom+Function         Bfn.  Coefficient  Atom+Function  
  ----- ------------  ---------------      ----- ------------  ---------------
     6      0.537637  1 O  s                 10      0.403033  1 O  s          
     2     -0.184689  1 O  s                  1     -0.114976  1 O  s          
     7      0.115236  1 O  px                14      0.112114  2 H  s          
    17      0.112114  3 H  s                  3      0.062206  1 O  px         
    11      0.060337  1 O  px                15      0.043035  2 H  s          

 Vector    3  Occ=2.000000D+00  E=-5.816127D-01
              MO Center=  9.0D+00, -6.2D-15,  6.6D-08, r^2= 7.6D-01
   Bfn.  Coefficient  Atom+Function         Bfn.  Coefficient  Atom+Function  
  ----- ------------  ---------------      ----- ------------  ---------------
     9      0.361735  1 O  pz                 5      0.238058  1 O  pz         
    13      0.201552  1 O  pz                15      0.185472  2 H  s          
    18     -0.185473  3 H  s                 14      0.171753  2 H  s          
    17     -0.171753  3 H  s                 16      0.064564  2 H  s          
    19     -0.064564  3 H  s          

 Vector    4  Occ=2.000000D+00  E=-3.794538D-01
              MO Center=  8.6D+00, -4.3D-07, -4.4D-07, r^2= 6.4D-01
   Bfn.  Coefficient  Atom+Function         Bfn.  Coefficient  Atom+Function  
  ----- ------------  ---------------      ----- ------------  ---------------
    11      0.401403  1 O  px                 7      0.366743  1 O  px         
    10     -0.307671  1 O  s                  3      0.266196  1 O  px         
     6     -0.221821  1 O  s                 15      0.086627  2 H  s          
    18      0.086629  3 H  s                 14      0.082159  2 H  s          
    17      0.082159  3 H  s                  2      0.074686  1 O  s          

 Vector    5  Occ=2.000000D+00  E=-3.218528D-01
              MO Center=  8.8D+00,  4.7D-07,  6.1D-15, r^2= 6.1D-01
   Bfn.  Coefficient  Atom+Function         Bfn.  Coefficient  Atom+Function  
  ----- ------------  ---------------      ----- ------------  ---------------
    12      0.496000  1 O  py                 8      0.424797  1 O  py         
     4      0.304140  1 O  py         

 Vector    6  Occ=0.000000D+00  E= 1.350855D-02
              MO Center=  9.5D+00, -2.4D-07, -1.9D-05, r^2= 3.2D+00
   Bfn.  Coefficient  Atom+Function         Bfn.  Coefficient  Atom+Function  
  ----- ------------  ---------------      ----- ------------  ---------------
    10      0.905433  1 O  s                 16     -0.766330  2 H  s          
    19     -0.766355  3 H  s                 11      0.231730  1 O  px         
     6      0.182359  1 O  s                  7      0.153130  1 O  px         
    15     -0.098260  2 H  s                 18     -0.098258  3 H  s          
     3      0.090988  1 O  px                 2     -0.069022  1 O  s          

 Vector    7  Occ=0.000000D+00  E= 9.373492D-02
              MO Center=  9.4D+00, -1.5D-13,  1.9D-05, r^2= 4.0D+00
   Bfn.  Coefficient  Atom+Function         Bfn.  Coefficient  Atom+Function  
  ----- ------------  ---------------      ----- ------------  ---------------
    16      1.426854  2 H  s                 19     -1.426842  3 H  s          
    13     -0.540425  1 O  pz                 9     -0.211772  1 O  pz         
     5     -0.156459  1 O  pz                15      0.059469  2 H  s          
    18     -0.059467  3 H  s          

 Vector    8  Occ=0.000000D+00  E= 3.877349D-01
              MO Center=  8.9D+00,  2.9D-13, -2.5D-05, r^2= 2.3D+00
   Bfn.  Coefficient  Atom+Function         Bfn.  Coefficient  Atom+Function  
  ----- ------------  ---------------      ----- ------------  ---------------
    15      1.498507  2 H  s                 18     -1.498576  3 H  s          
    13     -1.126618  1 O  pz                16     -0.897762  2 H  s          
    19      0.897789  3 H  s                  9     -0.204419  1 O  pz         
     5     -0.134217  1 O  pz                14      0.112091  2 H  s          
    17     -0.112095  3 H  s          

 Vector    9  Occ=0.000000D+00  E= 4.026262D-01
              MO Center=  9.4D+00,  7.7D-08,  2.5D-05, r^2= 2.1D+00
   Bfn.  Coefficient  Atom+Function         Bfn.  Coefficient  Atom+Function  
  ----- ------------  ---------------      ----- ------------  ---------------
    15      1.670814  2 H  s                 18      1.670752  3 H  s          
    10     -1.207944  1 O  s                 11     -0.869625  1 O  px         
    16     -0.665317  2 H  s                 19     -0.665279  3 H  s          
     7     -0.184079  1 O  px                 6     -0.154241  1 O  s          
    14      0.111928  2 H  s                 17      0.111923  3 H  s          

 Vector   10  Occ=0.000000D+00  E= 7.415511D-01
              MO Center=  8.8D+00, -5.6D-06,  7.9D-13, r^2= 1.3D+00
   Bfn.  Coefficient  Atom+Function         Bfn.  Coefficient  Atom+Function  
  ----- ------------  ---------------      ----- ------------  ---------------
    12      1.123907  1 O  py                 8     -0.809793  1 O  py         
     4     -0.268163  1 O  py         

 Vector   11  Occ=0.000000D+00  E= 7.461467D-01
              MO Center=  8.5D+00,  5.6D-06, -4.5D-07, r^2= 1.3D+00
   Bfn.  Coefficient  Atom+Function         Bfn.  Coefficient  Atom+Function  
  ----- ------------  ---------------      ----- ------------  ---------------
    11      1.404188  1 O  px                 7     -0.802009  1 O  px         
    10      0.502507  1 O  s                 15     -0.365230  2 H  s          
    18     -0.365231  3 H  s                  3     -0.252076  1 O  px         
     6      0.085369  1 O  s                 16     -0.084190  2 H  s          
    19     -0.084181  3 H  s                 14     -0.040449  2 H  s          

 Vector   12  Occ=0.000000D+00  E= 8.760613D-01
              MO Center=  8.7D+00, -1.0D-13,  3.8D-07, r^2= 1.9D+00
   Bfn.  Coefficient  Atom+Function         Bfn.  Coefficient  Atom+Function  
  ----- ------------  ---------------      ----- ------------  ---------------
    13      1.835906  1 O  pz                 9     -0.849797  1 O  pz         
    16     -0.836915  2 H  s                 19      0.836917  3 H  s          
    15     -0.287860  2 H  s                 18      0.287865  3 H  s          
     5     -0.254251  1 O  pz         

 Vector   13  Occ=0.000000D+00  E= 1.144747D+00
              MO Center=  9.0D+00,  3.1D-07,  1.5D-06, r^2= 1.4D+00
   Bfn.  Coefficient  Atom+Function         Bfn.  Coefficient  Atom+Function  
  ----- ------------  ---------------      ----- ------------  ---------------
    10      2.965272  1 O  s                  6     -1.816894  1 O  s          
    11      0.684664  1 O  px                15     -0.660777  2 H  s          
    18     -0.660776  3 H  s                 16     -0.387278  2 H  s          
    19     -0.387275  3 H  s                  2      0.244979  1 O  s          
     1      0.122774  1 O  s                  7     -0.080838  1 O  px         

 Vector   14  Occ=0.000000D+00  E= 2.111454D+00
              MO Center=  9.3D+00, -1.1D-09, -1.2D-05, r^2= 1.5D+00
   Bfn.  Coefficient  Atom+Function         Bfn.  Coefficient  Atom+Function  
  ----- ------------  ---------------      ----- ------------  ---------------
    15      1.673805  2 H  s                 18      1.673829  3 H  s          
    14     -1.090014  2 H  s                 17     -1.090029  3 H  s          
    10     -0.593465  1 O  s                 16     -0.504615  2 H  s          
    19     -0.504627  3 H  s                 11     -0.403167  1 O  px         
     3      0.160497  1 O  px                 6     -0.064731  1 O  s          

 Vector   15  Occ=0.000000D+00  E= 2.164124D+00
              MO Center=  9.3D+00, -6.0D-16,  1.2D-05, r^2= 1.6D+00
   Bfn.  Coefficient  Atom+Function         Bfn.  Coefficient  Atom+Function  
  ----- ------------  ---------------      ----- ------------  ---------------
    15      1.708013  2 H  s                 18     -1.707989  3 H  s          
    14     -1.101099  2 H  s                 17      1.101083  3 H  s          
    16     -0.819823  2 H  s                 19      0.819816  3 H  s          
    13     -0.356593  1 O  pz                 5      0.201675  1 O  pz         
     9     -0.027436  1 O  pz         

 Vector   16  Occ=0.000000D+00  E= 4.727944D+00
              MO Center=  8.8D+00,  6.5D-09,  4.5D-16, r^2= 4.2D-01
   Bfn.  Coefficient  Atom+Function         Bfn.  Coefficient  Atom+Function  
  ----- ------------  ---------------      ----- ------------  ---------------
     8      1.391255  1 O  py                 4     -1.262054  1 O  py         
    12     -0.542797  1 O  py         

 Vector   17  Occ=0.000000D+00  E= 4.835750D+00
              MO Center=  8.8D+00,  4.9D-09, -2.6D-08, r^2= 4.3D-01
   Bfn.  Coefficient  Atom+Function         Bfn.  Coefficient  Atom+Function  
  ----- ------------  ---------------      ----- ------------  ---------------
     7      1.438767  1 O  px                 3     -1.263465  1 O  px         
    11     -0.692998  1 O  px                15      0.362366  2 H  s          
    18      0.362366  3 H  s                 10     -0.344754  1 O  s          
    14     -0.240716  2 H  s                 17     -0.240716  3 H  s          
     6      0.084106  1 O  s          

 Vector   18  Occ=0.000000D+00  E= 5.008793D+00
              MO Center=  8.8D+00,  3.8D-16,  4.7D-08, r^2= 4.6D-01
   Bfn.  Coefficient  Atom+Function         Bfn.  Coefficient  Atom+Function  
  ----- ------------  ---------------      ----- ------------  ---------------
     9      1.534308  1 O  pz                 5     -1.274351  1 O  pz         
    13     -0.886572  1 O  pz                15      0.390654  2 H  s          
    18     -0.390654  3 H  s                 14     -0.314731  2 H  s          
    17      0.314731  3 H  s                 16      0.165262  2 H  s          
    19     -0.165262  3 H  s          

 Vector   19  Occ=0.000000D+00  E= 4.972109D+01
              MO Center=  8.8D+00,  1.3D-10,  2.1D-10, r^2= 3.6D-02
   Bfn.  Coefficient  Atom+Function         Bfn.  Coefficient  Atom+Function  
  ----- ------------  ---------------      ----- ------------  ---------------
     2     -2.330177  1 O  s                  1      2.245915  1 O  s          
    10     -0.252751  1 O  s                  6      0.248598  1 O  s          
    11     -0.048807  1 O  px                15      0.046181  2 H  s          
    18      0.046181  3 H  s                 16      0.032504  2 H  s          
    19      0.032504  3 H  s          


 center of mass
 --------------
 x =  16.69889814 y =   0.00000000 z =   0.00000000

 moments of inertia (a.u.)
 ------------------
           4.098328124931           0.000000000000           0.000000000000
           0.000000000000           5.855551995131           0.000000000000
           0.000000000000           0.000000000000           1.757223870200

     Multipole analysis of the density
     ---------------------------------

     L   x y z        total         alpha         beta         nuclear
     -   - - -        -----         -----         ----         -------
     0   0 0 0     -0.000000     -5.000000     -5.000000     10.000000

     1   1 0 0      0.983879    -83.438917    -83.438917    167.861714
     1   0 1 0      0.000001      0.000000      0.000000      0.000000
     1   0 0 1      0.000003      0.000002      0.000002      0.000000

     2   2 0 0     28.298926  -1395.513609  -1395.513609   2819.326144
     2   1 1 0      0.000010      0.000005      0.000005      0.000000
     2   1 0 1      0.000054      0.000027      0.000027      0.000000
     2   0 2 0     -5.386548     -2.693274     -2.693274      0.000000
     2   0 1 1      0.000000      0.000000      0.000000      0.000000
     2   0 0 2     -3.022959     -3.544734     -3.544734      4.066508


 Parallel integral file used       1 records with       0 large values

 *** CALLING NEW AORESP DRIVER FOR CLOSED AND OPEN SHELLS ***
 Entering AOResponse driver routine


--------------------------------------------------------------------------------

          ****************
          *** RESPONSE ***
          ****************

 Response module for NWChem and dynamic CPKS solver
 developed by J. Autschbach and coworkers, SUNY Buffalo
 The methodology used in this program is described in 
 ChemPhysChem 12 (2011), 3224-3235 (main reference)
 J. Chem. Phys. 123 (2005), 114103
 J. Chem. Phys. 122 (2005), 224115
 J. Chem. Phys. 122 (2005), 074105
 Comp. Lett. 3 (2007), 131-150 (contact JA for a copy)
 Please cite this work in publications based on results
 obtained with this code. Thank you!

 For extension of response module to open shell
 calculations please acknowledge:
 F. Aquino, Northwestern University, Schatz Rsrch Group
 The update to the methodology is described in
 J. Phys. Chem. A 118 (2014) 517-525



          -----------------------------------------------
          Solving response equations for perturbing field
          -----------------------------------------------

 number of frequencies:     1
 frequency in a.u.:  0.0000000E+00
 Perturbing field: electric
 Using El. Dipole Length Gauge

 Setting up CPKS with frequency omega =      0.00000000 a.u.

 STATIC response

                                NWChem CPHF Module
                                ------------------


  scftype          =     RHF 
  nclosed          =        5
  nopen            =        0
  variables        =       70
  # of vectors     =        3
  tolerance        = 0.10D-03
  level shift      = 0.00D+00
  max iterations   =       50
  max subspace     =       30

 Entering DIM/QM Main
 Allocated local arrays
 Pulled coords
 Allocated heap arrays
 Start dimqm_prep
 Start EqmN
 End EqmN
 DIM/QM First Cycle Prep Done
 User requested tolerance below   1.0000000000000000E-004
 Setting pre-seed tolerance to   1.0000000000000000E-004
 Entering EqmE
 Exiting EqmE
 Begin dimqm_f2d
 Begin dimqm_iterative
 DIM/QM Seeding QMR
 Start seed QMR routine
 Tol:    1.0000000000000000E-004
 Start MatvecReal routine
 End MatvecReal Routine
 Res_nrm_upper_bound:  0.43937677210479081     
 Iteration                    1
 Time (s):   4.2761539807543159E-003
 Start MatvecReal routine
 End MatvecReal Routine
 Res_nrm_upper_bound:  0.28353883984540740     
 Iteration                    2
 Time (s):   4.9675029003992677E-003
 Start MatvecReal routine
 End MatvecReal Routine
 Res_nrm_upper_bound:  0.17699352771697421     
 Iteration                    3
 Time (s):   4.2543360032141209E-003
 Start MatvecReal routine
 End MatvecReal Routine
 Res_nrm_upper_bound:  0.11189389018973778     
 Iteration                    4
 Time (s):   4.2668739333748817E-003
 Start MatvecReal routine
 End MatvecReal Routine
 Res_nrm_upper_bound:   7.7010092252900522E-002
 Iteration                    5
 Time (s):   4.0405469480901957E-003
 Start MatvecReal routine
 End MatvecReal Routine
 Res_nrm_upper_bound:   5.5532623591643362E-002
 Iteration                    6
 Time (s):   3.9790809387341142E-003
 Start MatvecReal routine
 End MatvecReal Routine
 Res_nrm_upper_bound:   2.8992455471475831E-002
 Iteration                    7
 Time (s):   4.1557180229574442E-003
 Start MatvecReal routine
 End MatvecReal Routine
 Res_nrm_upper_bound:   1.7571706946750719E-002
 Iteration                    8
 Time (s):   4.0005809860303998E-003
 Start MatvecReal routine
 End MatvecReal Routine
 Res_nrm_upper_bound:   1.1198619667892058E-002
 Iteration                    9
 Time (s):   3.8105580024421215E-003
 Start MatvecReal routine
 End MatvecReal Routine
 Res_nrm_upper_bound:   6.5832229178964079E-003
 Iteration                   10
 Time (s):   3.8208719342947006E-003
 Start MatvecReal routine
 End MatvecReal Routine
 Res_nrm_upper_bound:   4.4445499773646292E-003
 Iteration                   11
 Time (s):   3.6111429799348116E-003
 Start MatvecReal routine
 End MatvecReal Routine
 Res_nrm_upper_bound:   1.8059254293579590E-003
 Iteration                   12
 Time (s):   5.1765169482678175E-003
 Start MatvecReal routine
 End MatvecReal Routine
 Start MatvecReal routine
 End MatvecReal Routine
 Res_nrm:    2.6033809748022462E-004
 Iteration                   13
 Time (s):   6.9698720471933484E-003
 Start MatvecReal routine
 End MatvecReal Routine
 Start MatvecReal routine
 End MatvecReal Routine
 Res_nrm:    8.3320337313924265E-005
 Iteration                   14
 Time (s):   7.2072669863700867E-003
 End seed QMR Routine
 DIM/QM dipoles converged in                   14 iterations
 Took   6.6457557026296854E-002 seconds
 
 End dimqm_iterative
 End dimqm_f2d
 Saved dipoles as old dipoles
                                     DIM/QM Results
                                     --------------
 
 
 ==================================================
 DIM/QM Energy
 --------------------------------------------------
 Polarization (Dipole, el.) =        -0.1138682910
 Polarization (Dipole, nuc) =         0.1103737000
              Total Energy  =        -0.0034945910
 ==================================================
 
 ElementsAg

 ==================================================
 DIM COORDINATES
 --------------------------------------------------
                 X           Y           Z
 --------------------------------------------------
     1 Ag     0.00000     0.00000     0.00000
     2 Ag     5.45942     0.00000     0.00000
     3 Ag    10.91884     0.00000     0.00000
     4 Ag     2.44036     4.88072     0.00000
     5 Ag     7.89978     4.88072     0.00000
     6 Ag     4.88072     9.76144     0.00000
     7 Ag     2.45128     1.51772     4.63505
     8 Ag     7.91070     1.51772     4.63505
     9 Ag     4.89164     6.39844     4.63505
    10 Ag     4.90256     3.03544     9.27009
    11 Ag    -2.42944     3.95262     2.87165
    12 Ag     0.02184     5.46488     7.50670
    13 Ag     0.01092     8.83334     2.87165
    14 Ag    -4.85888     7.90524     5.74331
    15 Ag     2.44036     1.50823    -4.64184
    16 Ag     7.89978     1.50823    -4.64184
    17 Ag     4.88072     3.01645    -9.28368
    18 Ag     4.89164     6.38542    -4.65297
    19 Ag    -2.42944     3.95253    -2.87177
    20 Ag     0.02184     8.82804    -2.87771
    21 Ag     0.01092     5.46076    -7.51362
    22 Ag    -4.85888     7.90506    -5.74355
    23 Ag     2.44036    -3.94859    -2.86882
    24 Ag     7.89978    -3.94859    -2.86882
    25 Ag     4.88072    -7.89717    -5.73763
    26 Ag     4.89164    -2.45203    -7.51074
    27 Ag    -2.42944    -1.50982    -4.64651
    28 Ag     0.02184    -0.00885    -9.28522
    29 Ag     0.01092    -5.45841    -7.51532
    30 Ag    -4.85888    -3.01964    -9.29302
    31 Ag     2.44036    -3.94859     2.86882
    32 Ag     7.89978    -3.94859     2.86882
    33 Ag     4.88072    -7.89717     5.73763
    34 Ag     4.89164    -7.90086     0.01108
    35 Ag    -2.42944    -4.88565     0.00007
    36 Ag     0.02184    -8.83351    -2.86087
    37 Ag     0.01092    -8.83424     2.86889
    38 Ag    -4.85888    -9.77130     0.00015
    39 Ag     4.89164    -2.43097     7.51759
    40 Ag    -2.42944    -1.50968     4.64655
    41 Ag     0.02184    -5.45056     7.51711
    42 Ag     0.01092    -0.00145     9.28840
    43 Ag    -4.85888    -3.01936     9.29311
    44 Ag    -5.45942     0.00000     0.00000
    45 Ag   -10.91884     0.00000     0.00000
    46 Ag    -7.89978     3.94859    -2.86882
    47 Ag    -7.91070     3.95227     2.85774
    48 Ag    -4.89164     7.90086    -0.01108
    49 Ag    -7.89978    -1.50823    -4.64184
    50 Ag    -4.89164     2.43097    -7.51759
    51 Ag    -7.89978    -4.88072    -0.00000
    52 Ag    -4.89164    -6.39844    -4.63505
    53 Ag    -7.89978    -1.50823     4.64184
    54 Ag    -4.89164    -6.38542     4.65297
    55 Ag    -4.89164     2.45203     7.51074

 ============================================================
 Total induced dipole moment in DIM system :
 ------------------------------------------------------------
  A.U.:        1.23301399     -0.00027992     -0.00034639
  Debye:       3.13400885     -0.00071149     -0.00088043
 ============================================================

 ==================================================
 Induced dipoles for each DIM atom :
 --------------------------------------------------
     ATOM                 Dipole
                 X           Y           Z
 --------------------------------------------------
     1 Ag     0.07359     0.00001     0.00001
     2 Ag     0.19891    -0.00007    -0.00007
     3 Ag     0.56171    -0.00005    -0.00011
     4 Ag     0.01825    -0.02054     0.00000
     5 Ag     0.02680    -0.06456    -0.00006
     6 Ag     0.00428    -0.02535     0.00001
     7 Ag     0.01187    -0.00630    -0.02012
     8 Ag     0.00991    -0.01919    -0.06535
     9 Ag     0.00306    -0.00602    -0.00639
    10 Ag     0.00191    -0.00783    -0.02465
    11 Ag     0.00834    -0.00796    -0.00692
    12 Ag     0.00479    -0.00538    -0.00453
    13 Ag     0.00526    -0.00607    -0.00484
    14 Ag     0.00705    -0.00747    -0.00551
    15 Ag     0.01187    -0.00628     0.02002
    16 Ag     0.00993    -0.01896     0.06499
    17 Ag     0.00183    -0.00778     0.02451
    18 Ag     0.00292    -0.00603     0.00632
    19 Ag     0.00832    -0.00799     0.00695
    20 Ag     0.00520    -0.00603     0.00492
    21 Ag     0.00466    -0.00536     0.00456
    22 Ag     0.00702    -0.00748     0.00553
    23 Ag     0.01581     0.01651     0.01252
    24 Ag     0.02040     0.05124     0.04137
    25 Ag     0.00336     0.02042     0.01526
    26 Ag     0.00246     0.00198     0.00965
    27 Ag     0.00771     0.00272     0.01024
    28 Ag     0.00465     0.00185     0.00688
    29 Ag     0.00500     0.00217     0.00726
    30 Ag     0.00691     0.00284     0.00892
    31 Ag     0.01583     0.01657    -0.01247
    32 Ag     0.02041     0.05131    -0.04129
    33 Ag     0.00337     0.02045    -0.01522
    34 Ag     0.00325     0.00791     0.00009
    35 Ag     0.00871     0.01053     0.00002
    36 Ag     0.00500     0.00742     0.00003
    37 Ag     0.00502     0.00742    -0.00006
    38 Ag     0.00709     0.00928     0.00001
    39 Ag     0.00241     0.00211    -0.00958
    40 Ag     0.00768     0.00273    -0.01024
    41 Ag     0.00497     0.00214    -0.00728
    42 Ag     0.00467     0.00186    -0.00689
    43 Ag     0.00691     0.00287    -0.00891
    44 Ag     0.02754     0.00001     0.00000
    45 Ag     0.01322     0.00001     0.00000
    46 Ag     0.00452    -0.00298     0.00211
    47 Ag     0.00454    -0.00300    -0.00209
    48 Ag     0.00404    -0.00323     0.00002
    49 Ag     0.00437     0.00119     0.00351
    50 Ag     0.00422    -0.00101     0.00354
    51 Ag     0.00461     0.00364    -0.00000
    52 Ag     0.00411     0.00263     0.00219
    53 Ag     0.00437     0.00119    -0.00350
    54 Ag     0.00410     0.00263    -0.00218
    55 Ag     0.00424    -0.00097    -0.00354
 ==================================================

 End dimqm_main
  *** dim_grid_quadv0: calc_type:                    1
  *** dim_grid_quadv0: grid_written: T
  *** dim_grid_quadv0: do_scf: T
  *** dim_grid_quadv0: n_per_rec:                 3070

 #quartets = 4.186D+03 #integrals = 1.018D+04 #direct =  0.0% #cached =100.0%


 Integral file          = ./dimqm_static_pol.aoints.0
 Record size in doubles =    65536    No. of integs per rec  =    43688
 Max. records in memory =        2    Max. records in file   =  1575589
 No. of bits per label  =        8    No. of bits per value  =       64

 SCF residual:    2.3500418451144778E-006
 Start dimqm_prep


Iterative solution of linear equations
  No. of variables       70
  No. of equations        3
  Maximum subspace       30
        Iterations       50
       Convergence  1.0D-04
        Start time      2.2


   iter   nsub   residual    time
   ----  ------  --------  ---------
 First cycle, no old dipoles! Setting to zero
 Requested tolerance below 1.0d-4
 Setting x dir tolerance to 1.0d-4 to start
 Entering EqmE
 Exiting EqmE
 Begin dimqm_f2d
 Begin dimqm_iterative
 DIM/QM Seeding QMR
 Start seed QMR routine
 Tol:    1.0000000000000000E-004
 Start MatvecReal routine
 End MatvecReal Routine
 Res_nrm_upper_bound:  0.42571698013242659     
 Iteration                    1
 Time (s):   6.8460849579423666E-003
 Start MatvecReal routine
 End MatvecReal Routine
 Res_nrm_upper_bound:  0.28080661276689639     
 Iteration                    2
 Time (s):   5.7031559990718961E-003
 Start MatvecReal routine
 End MatvecReal Routine
 Res_nrm_upper_bound:  0.17235023141321931     
 Iteration                    3
 Time (s):   6.1491939704865217E-003
 Start MatvecReal routine
 End MatvecReal Routine
 Res_nrm_upper_bound:  0.11046195199209616     
 Iteration                    4
 Time (s):   5.6320170406252146E-003
 Start MatvecReal routine
 End MatvecReal Routine
 Res_nrm_upper_bound:   7.4436295521942059E-002
 Iteration                    5
 Time (s):   5.7203690521419048E-003
 Start MatvecReal routine
 End MatvecReal Routine
 Res_nrm_upper_bound:   5.4724899843251018E-002
 Iteration                    6
 Time (s):   5.2587229292839766E-003
 Start MatvecReal routine
 End MatvecReal Routine
 Res_nrm_upper_bound:   2.8389873796276582E-002
 Iteration                    7
 Time (s):   4.8099540872499347E-003
 Start MatvecReal routine
 End MatvecReal Routine
 Res_nrm_upper_bound:   1.6514363456583723E-002
 Iteration                    8
 Time (s):   4.6845710603520274E-003
 Start MatvecReal routine
 End MatvecReal Routine
 Res_nrm_upper_bound:   1.0725467254241438E-002
 Iteration                    9
 Time (s):   4.2550029465928674E-003
 Start MatvecReal routine
 End MatvecReal Routine
 Res_nrm_upper_bound:   6.1425782262774674E-003
 Iteration                   10
 Time (s):   4.1318510193377733E-003
 Start MatvecReal routine
 End MatvecReal Routine
 Res_nrm_upper_bound:   4.3428414562542809E-003
 Iteration                   11
 Time (s):   4.1750670643523335E-003
 Start MatvecReal routine
 End MatvecReal Routine
 Res_nrm_upper_bound:   1.7523179033332845E-003
 Iteration                   12
 Time (s):   4.0470330277457833E-003
 Start MatvecReal routine
 End MatvecReal Routine
 Start MatvecReal routine
 End MatvecReal Routine
 Res_nrm:    2.4880633461931112E-004
 Iteration                   13
 Time (s):   7.9965980257838964E-003
 Start MatvecReal routine
 End MatvecReal Routine
 Start MatvecReal routine
 End MatvecReal Routine
 Res_nrm:    7.0747977066446609E-005
 Iteration                   14
 Time (s):   7.5046380516141653E-003
 End seed QMR Routine
 DIM/QM dipoles converged in                   14 iterations
 Took   7.9311084002256393E-002 seconds
 
 End dimqm_iterative
 End dimqm_f2d
 Total induced dipole moment for x perturbation
   8.0815833440606388E-002  0.21698452169112981       0.61026995465041856     
 
 Max error in dipoles:  0.61047340236601377     
 
 First cycle, no old dipoles! Setting to zero
 Requested tolerance below 1.0d-4
 Setting y dir tolerance to 1.0d-4 to start
 Entering EqmE
 Exiting EqmE
 Begin dimqm_f2d
 Begin dimqm_iterative
 DIM/QM Seeding QMR
 Start seed QMR routine
 Tol:    1.0000000000000000E-004
 Start MatvecReal routine
 End MatvecReal Routine
 Res_nrm_upper_bound:  0.41056570727802716     
 Iteration                    1
 Time (s):   4.7820390900596976E-003
 Start MatvecReal routine
 End MatvecReal Routine
 Res_nrm_upper_bound:  0.29704453215429194     
 Iteration                    2
 Time (s):   4.3963550124317408E-003
 Start MatvecReal routine
 End MatvecReal Routine
 Res_nrm_upper_bound:  0.19257353086594672     
 Iteration                    3
 Time (s):   4.4118920341134071E-003
 Start MatvecReal routine
 End MatvecReal Routine
 Res_nrm_upper_bound:  0.12265473720541863     
 Iteration                    4
 Time (s):   4.2948949849233031E-003
 Start MatvecReal routine
 End MatvecReal Routine
 Res_nrm_upper_bound:   7.7554976555797434E-002
 Iteration                    5
 Time (s):   4.0691790636628866E-003
 Start MatvecReal routine
 End MatvecReal Routine
 Res_nrm_upper_bound:   4.8746949719694822E-002
 Iteration                    6
 Time (s):   4.4310260564088821E-003
 Start MatvecReal routine
 End MatvecReal Routine
 Res_nrm_upper_bound:   3.1082395107500851E-002
 Iteration                    7
 Time (s):   4.5052800560370088E-003
 Start MatvecReal routine
 End MatvecReal Routine
 Res_nrm_upper_bound:   1.8586391833354435E-002
 Iteration                    8
 Time (s):   4.4210670748725533E-003
 Start MatvecReal routine
 End MatvecReal Routine
 Res_nrm_upper_bound:   1.0280423887734702E-002
 Iteration                    9
 Time (s):   4.2004049755632877E-003
 Start MatvecReal routine
 End MatvecReal Routine
 Res_nrm_upper_bound:   6.9939678500183207E-003
 Iteration                   10
 Time (s):   4.1293320246040821E-003
 Start MatvecReal routine
 End MatvecReal Routine
 Res_nrm_upper_bound:   4.7602213701320190E-003
 Iteration                   11
 Time (s):   4.1539689991623163E-003
 Start MatvecReal routine
 End MatvecReal Routine
 Res_nrm_upper_bound:   2.7572980924496023E-003
 Iteration                   12
 Time (s):   4.0419090073555708E-003
 Start MatvecReal routine
 End MatvecReal Routine
 Res_nrm_upper_bound:   1.3225978848146218E-003
 Iteration                   13
 Time (s):   4.0730489417910576E-003
 Start MatvecReal routine
 End MatvecReal Routine
 Start MatvecReal routine
 End MatvecReal Routine
 Res_nrm:    1.9074649867433543E-004
 Iteration                   14
 Time (s):   7.2294770507141948E-003
 Start MatvecReal routine
 End MatvecReal Routine
 Start MatvecReal routine
 End MatvecReal Routine
 Res_nrm:    1.0664650241536778E-004
 Iteration                   15
 Time (s):   7.2792948922142386E-003
 Start MatvecReal routine
 End MatvecReal Routine
 Start MatvecReal routine
 End MatvecReal Routine
 Res_nrm:    7.1254891693153837E-005
 Iteration                   16
 Time (s):   7.0383030688390136E-003
 End seed QMR Routine
 DIM/QM dipoles converged in                   16 iterations
 Took   7.9369465005584061E-002 seconds
 
 End dimqm_iterative
 End dimqm_f2d
 Total induced dipole moment for y perturbation
  -4.3324400534916762E-004  -6.6870106315803915E-003 -0.12868014559557264     
 
 Max error in dipoles:  0.12867544920363624     
 
 First cycle, no old dipoles! Setting to zero
 Requested tolerance below 1.0d-4
 Setting z dir tolerance to 1.0d-4 to start
 Entering EqmE
 Exiting EqmE
 Begin dimqm_f2d
 Begin dimqm_iterative
 DIM/QM Seeding QMR
 Start seed QMR routine
 Tol:    1.0000000000000000E-004
 Start MatvecReal routine
 End MatvecReal Routine
 Res_nrm_upper_bound:  0.41131583598719096     
 Iteration                    1
 Time (s):   3.8493800675496459E-003
 Start MatvecReal routine
 End MatvecReal Routine
 Res_nrm_upper_bound:  0.29780556209032155     
 Iteration                    2
 Time (s):   4.1052469750866294E-003
 Start MatvecReal routine
 End MatvecReal Routine
 Res_nrm_upper_bound:  0.19365676451314892     
 Iteration                    3
 Time (s):   3.9561310550197959E-003
 Start MatvecReal routine
 End MatvecReal Routine
 Res_nrm_upper_bound:  0.12318470776460026     
[...]
 End MatvecReal Routine
 Start MatvecReal routine
 End MatvecReal Routine
 Res_nrm:    7.4979379053944609E-007
 Iteration                   10
 Time (s):   1.0591482976451516E-002
 End QMR Routine
 DIM/QM dipoles converged in                   10 iterations
 Took   6.3470249995589256E-002 seconds
 
 End dimqm_iterative
 End dimqm_f2d
 Total induced dipole moment for x perturbation
   7.6716124776601224E-002  0.20591626711362909       0.57927558406184687     
 
 Max error in dipoles:   7.1397326166233732E-005
 
 Entering EqmE
 Exiting EqmE
 Begin dimqm_f2d
 Begin dimqm_iterative
 Using previous dipoles
 Start non-seed QMR routine
 Tol:    9.9999999999999995E-007
 res_0:   3.8394612106671909E-003
 Projecting                   16 steps
 Start MatvecReal routine
 End MatvecReal Routine
 Start MatvecReal routine
 End MatvecReal Routine
 Res_nrm_upper_bound:   1.3212231708699545E-004
 Iteration                    1
 Time (s):   4.1523739928379655E-003
 Start MatvecReal routine
 End MatvecReal Routine
 Res_nrm_upper_bound:   1.0945637047841179E-004
 Iteration                    2
 Time (s):   4.8235530266538262E-003
 Start MatvecReal routine
 End MatvecReal Routine
 Res_nrm_upper_bound:   6.7002011788121104E-005
 Iteration                    3
 Time (s):   4.8737809993326664E-003
 Start MatvecReal routine
 End MatvecReal Routine
 Res_nrm_upper_bound:   4.4841031025780659E-005
 Iteration                    4
 Time (s):   4.8103330191224813E-003
 Start MatvecReal routine
 End MatvecReal Routine
 Res_nrm_upper_bound:   2.8659455867689478E-005
 Iteration                    5
 Time (s):   4.5078459661453962E-003
 Start MatvecReal routine
 End MatvecReal Routine
 Res_nrm_upper_bound:   1.8359941317280574E-005
 Iteration                    6
 Time (s):   4.2389290174469352E-003
 Start MatvecReal routine
 End MatvecReal Routine
 Res_nrm_upper_bound:   1.0083408544614707E-005
 Iteration                    7
 Time (s):   4.2888900497928262E-003
 Start MatvecReal routine
 End MatvecReal Routine
 Start MatvecReal routine
 End MatvecReal Routine
 Res_nrm:    1.7724073197193162E-006
 Iteration                    8
 Time (s):   7.2548160096630454E-003
 Start MatvecReal routine
 End MatvecReal Routine
 Start MatvecReal routine
 End MatvecReal Routine
 Res_nrm:    1.0467234556590968E-006
 Iteration                    9
 Time (s):   7.3040609713643789E-003
 Start MatvecReal routine
 End MatvecReal Routine
 Start MatvecReal routine
 End MatvecReal Routine
 Res_nrm:    6.2533086092541483E-007
 Iteration                   10
 Time (s):   8.1433670129626989E-003
 End QMR Routine
 DIM/QM dipoles converged in                   10 iterations
 Took   7.0927947061136365E-002 seconds
 
 End dimqm_iterative
 End dimqm_f2d
 Total induced dipole moment for y perturbation
  -4.7890957761477553E-004  -7.0669989085617732E-003 -0.13501118645791088     
 
 Max error in dipoles:   2.3247925251546064E-007
 
 Entering EqmE
 Exiting EqmE
 Begin dimqm_f2d
 Begin dimqm_iterative
 Using previous dipoles
 Start non-seed QMR routine
 Tol:    9.9999999999999995E-007
 res_0:   8.1944934104105777E-003
 Projecting                   16 steps
 Start MatvecReal routine
 End MatvecReal Routine
 Start MatvecReal routine
 End MatvecReal Routine
 Res_nrm_upper_bound:   1.0235853126310995E-004
 Iteration                    1
 Time (s):   4.1504850378260016E-003
 Start MatvecReal routine
 End MatvecReal Routine
 Res_nrm_upper_bound:   8.4990963795378424E-005
 Iteration                    2
 Time (s):   4.9137630267068744E-003
 Start MatvecReal routine
 End MatvecReal Routine
 Res_nrm_upper_bound:   5.3536836447495513E-005
 Iteration                    3
 Time (s):   3.8500749506056309E-003
 Start MatvecReal routine
 End MatvecReal Routine
 Res_nrm_upper_bound:   3.6212623032981988E-005
 Iteration                    4
 Time (s):   4.1535299969837070E-003
 Start MatvecReal routine
 End MatvecReal Routine
 Res_nrm_upper_bound:   2.2669518858730275E-005
 Iteration                    5
 Time (s):   3.8549590390175581E-003
 Start MatvecReal routine
 End MatvecReal Routine
 Res_nrm_upper_bound:   1.4176286227668718E-005
 Iteration                    6
 Time (s):   4.4147570151835680E-003
 Start MatvecReal routine
 End MatvecReal Routine
 Start MatvecReal routine
 End MatvecReal Routine
 Res_nrm:    2.6962771904915323E-006
 Iteration                    7
 Time (s):   8.0197179922834039E-003
 Start MatvecReal routine
 End MatvecReal Routine
 Start MatvecReal routine
 End MatvecReal Routine
 Res_nrm:    1.3439499041877363E-006
 Iteration                    8
 Time (s):   7.4046599911525846E-003
 Start MatvecReal routine
 End MatvecReal Routine
 Start MatvecReal routine
 End MatvecReal Routine
 Res_nrm:    8.2591072524999823E-007
 Iteration                    9
 Time (s):   6.7149690585210919E-003
 End QMR Routine
 DIM/QM dipoles converged in                    9 iterations
 Took   6.0863683000206947E-002 seconds
 
 End dimqm_iterative
 End dimqm_f2d
 Total induced dipole moment for z perturbation
  -1.6609259929308668E-003  -1.6134925283525708E-002 -0.28683775829736669     
 
 Max error in dipoles:   5.9787539636313447E-006
 
 Entered fock_dim
  *** dim_grid_quadv0: calc_type:                    2
  *** dim_grid_quadv0: grid_written: T
  *** dim_grid_quadv0: do_scf: F
  *** dim_grid_quadv0: n_per_rec:                 3070
     5     15    6.63D-05       8.1

 Parallel integral file used       1 records with       0 large values

 Start dimqm_prep

 Electric Dipole Response Matrix (nonzero elements):

              1        2        3      
    1    4.5260   0.0000   0.0000
    2    0.0000   2.8043   0.0000
    3    0.0000   0.0000   6.7143

 ------------------------------------------
 average:         4.68156 + I       0.00000


 DFT Linear Response polarizability / au 
 Frequency  =       0.0000000 / au
 Wavelength = -999999.0000000 / nm
              X              Y              Z
 -----------------------------------------------
 X       4.5260390      0.0000011      0.0000076
 Y       0.0000011      2.8043162      0.0000026
 Z       0.0000076      0.0000026      6.7143183
 -----------------------------------------------
 Eigenvalues =       4.5260390      2.8043162      6.7143183
 Isotropic   =       4.6815578
 Anisotropic =       3.3941870
 -----------------------------------------------

 Magnetic Dipole Response Matrix (nonzero elements):
 Optical rotation tensor Beta

 *** static G'=0. Use GPRIME input with finite omega
 *** or better ORBETA without GPRIME for small or zero freq.


 zero matrix


 ------------------------------------------
 average:         0.00000 + I       0.00000

 Begin Standalone Polarizability Routine
 Begin dimqm_f2d
 Begin dimqm_iterative
 DIM/QM QMR
 Start QMR real routine
 Tol:    9.9999999999999995E-007
 Start MatvecReal routine
 End MatvecReal Routine
 Res_nrm_upper_bound:  0.38032837249555163     
 Iteration                    1
 Time (s):   4.8972479999065399E-003
 Start MatvecReal routine
 End MatvecReal Routine
 Res_nrm_upper_bound:  0.21660696341165203     
 Iteration                    2
 Time (s):   4.8770119901746511E-003
 Start MatvecReal routine
 End MatvecReal Routine
 Res_nrm_upper_bound:  0.11000996870790294     
 Iteration                    3
 Time (s):   4.0848610224202275E-003
 Start MatvecReal routine
 End MatvecReal Routine
 Res_nrm_upper_bound:   6.4058173030835691E-002
 Iteration                    4
 Time (s):   4.1399069596081972E-003
 Start MatvecReal routine
 End MatvecReal Routine
 Res_nrm_upper_bound:   4.7123682004146947E-002
 Iteration                    5
 Time (s):   3.9621160831302404E-003
 Start MatvecReal routine
 End MatvecReal Routine
 Res_nrm_upper_bound:   1.5348967824989514E-002
 Iteration                    6
 Time (s):   3.7608880084007978E-003
 Start MatvecReal routine
 End MatvecReal Routine
 Res_nrm_upper_bound:   1.2378259137812013E-002
 Iteration                    7
 Time (s):   4.2652910342440009E-003
 Start MatvecReal routine
 End MatvecReal Routine
 Res_nrm_upper_bound:   2.5047709109862230E-003
 Iteration                    8
 Time (s):   3.8434349698945880E-003
 Start MatvecReal routine
 End MatvecReal Routine
 Res_nrm_upper_bound:   1.4983123869338098E-003
 Iteration                    9
 Time (s):   4.1544550331309438E-003
 Start MatvecReal routine
 End MatvecReal Routine
 Res_nrm_upper_bound:   6.0002371839396745E-004
 Iteration                   10
 Time (s):   5.3278449922800064E-003
 Start MatvecReal routine
 End MatvecReal Routine
 Res_nrm_upper_bound:   1.4472998185498348E-004
 Iteration                   11
 Time (s):   4.5134039828553796E-003
 Start MatvecReal routine
 End MatvecReal Routine
 Res_nrm_upper_bound:   7.4746020550888037E-005
 Iteration                   12
 Time (s):   4.2497849790379405E-003
 Start MatvecReal routine
 End MatvecReal Routine
 Res_nrm_upper_bound:   2.6285349813469038E-005
 Iteration                   13
 Time (s):   3.9157449500635266E-003
 Start MatvecReal routine
 End MatvecReal Routine
 Res_nrm_upper_bound:   1.2153059607265447E-005
 Iteration                   14
 Time (s):   3.7078449968248606E-003
 Start MatvecReal routine
 End MatvecReal Routine
 Start MatvecReal routine
 End MatvecReal Routine
 Res_nrm:    1.5954447610065131E-006
 Iteration                   15
 Time (s):   7.0600829785689712E-003
 Start MatvecReal routine
 End MatvecReal Routine
 Start MatvecReal routine
 End MatvecReal Routine
 Res_nrm:    9.5904522538724006E-007
 Iteration                   16
 Time (s):   8.3260820247232914E-003
 End QMR Routine
 DIM/QM dipoles converged in                   16 iterations
 Took   7.7097019995562732E-002 seconds
 
 End dimqm_iterative
 End dimqm_f2d
 Begin dimqm_f2d
 Begin dimqm_iterative
 DIM/QM QMR
 Start QMR real routine
 Tol:    9.9999999999999995E-007
 Start MatvecReal routine
 End MatvecReal Routine
 Res_nrm_upper_bound:  0.37999478354274935     
 Iteration                    1
 Time (s):   4.9708340084180236E-003
 Start MatvecReal routine
 End MatvecReal Routine
 Res_nrm_upper_bound:  0.21605664736425928     
 Iteration                    2
 Time (s):   4.2847240110859275E-003
 Start MatvecReal routine
 End MatvecReal Routine
 Res_nrm_upper_bound:  0.11018169651210269     
 Iteration                    3
 Time (s):   5.0870639970526099E-003
 Start MatvecReal routine
 End MatvecReal Routine
 Res_nrm_upper_bound:   6.4336142538891167E-002
 Iteration                    4
 Time (s):   5.2638200577348471E-003
 Start MatvecReal routine
 End MatvecReal Routine
 Res_nrm_upper_bound:   4.7313383228704965E-002
 Iteration                    5
 Time (s):   5.4804430110380054E-003
 Start MatvecReal routine
 End MatvecReal Routine
 Res_nrm_upper_bound:   1.4544943612759849E-002
 Iteration                    6
 Time (s):   5.1852869801223278E-003
 Start MatvecReal routine
 End MatvecReal Routine
 Res_nrm_upper_bound:   5.7898534786179068E-003
 Iteration                    7
 Time (s):   4.8181749880313873E-003
 Start MatvecReal routine
 End MatvecReal Routine
 Res_nrm_upper_bound:   1.7295562621028955E-003
 Iteration                    8
 Time (s):   4.1965559357777238E-003
 Start MatvecReal routine
 End MatvecReal Routine
 Res_nrm_upper_bound:   1.3899011950082949E-003
 Iteration                    9
 Time (s):   4.1757960570976138E-003
 Start MatvecReal routine
 End MatvecReal Routine
 Res_nrm_upper_bound:   5.3796389248350499E-004
 Iteration                   10
 Time (s):   5.7902160333469510E-003
 Start MatvecReal routine
 End MatvecReal Routine
 Res_nrm_upper_bound:   2.0123952010320934E-004
 Iteration                   11
 Time (s):   4.8555849352851510E-003
 Start MatvecReal routine
 End MatvecReal Routine
 Res_nrm_upper_bound:   7.9837260509324807E-005
 Iteration                   12
 Time (s):   4.1339130839332938E-003
 Start MatvecReal routine
 End MatvecReal Routine
 Res_nrm_upper_bound:   2.5562529370607998E-005
 Iteration                   13
 Time (s):   3.9945689495652914E-003
 Start MatvecReal routine
 End MatvecReal Routine
 Start MatvecReal routine
 End MatvecReal Routine
 Res_nrm:    2.5480730772257994E-006
 Iteration                   14
 Time (s):   7.6215119333937764E-003
 Start MatvecReal routine
 End MatvecReal Routine
 Start MatvecReal routine
 End MatvecReal Routine
 Res_nrm:    1.3764088942239034E-006
 Iteration                   15
 Time (s):   8.0019859597086906E-003
 Start MatvecReal routine
 End MatvecReal Routine
 Start MatvecReal routine
 End MatvecReal Routine
 Res_nrm:    8.0763202015547396E-007
 Iteration                   16
 Time (s):   8.6758809629827738E-003
 End QMR Routine
 DIM/QM dipoles converged in                   16 iterations
 Took   8.8707254966720939E-002 seconds
 
 End dimqm_iterative
 End dimqm_f2d
 Begin dimqm_f2d
 Begin dimqm_iterative
 DIM/QM QMR
 Start QMR real routine
 Tol:    9.9999999999999995E-007
 Start MatvecReal routine
 End MatvecReal Routine
 Res_nrm_upper_bound:  0.38036200451386293     
 Iteration                    1
 Time (s):   5.6411609984934330E-003
 Start MatvecReal routine
 End MatvecReal Routine
 Res_nrm_upper_bound:  0.21605810698913283     
 Iteration                    2
 Time (s):   4.8077100655063987E-003
 Start MatvecReal routine
 End MatvecReal Routine
 Res_nrm_upper_bound:  0.11005588444745902     
 Iteration                    3
 Time (s):   4.9057219875976443E-003
 Start MatvecReal routine
 End MatvecReal Routine
 Res_nrm_upper_bound:   6.4232675862575153E-002
 Iteration                    4
 Time (s):   5.9356159763410687E-003
 Start MatvecReal routine
 End MatvecReal Routine
 Res_nrm_upper_bound:   4.7276658177084034E-002
 Iteration                    5
 Time (s):   4.8690529074519873E-003
 Start MatvecReal routine
 End MatvecReal Routine
 Res_nrm_upper_bound:   1.4554813656178837E-002
 Iteration                    6
 Time (s):   5.3386850049719214E-003
 Start MatvecReal routine
 End MatvecReal Routine
 Res_nrm_upper_bound:   6.8951664022374511E-003
 Iteration                    7
 Time (s):   5.0021350616589189E-003
 Start MatvecReal routine
 End MatvecReal Routine
 Res_nrm_upper_bound:   1.9012957718153253E-003
 Iteration                    8
 Time (s):   5.5462759919464588E-003
 Start MatvecReal routine
 End MatvecReal Routine
 Res_nrm_upper_bound:   1.4202392505764678E-003
 Iteration                    9
 Time (s):   5.2100860048085451E-003
 Start MatvecReal routine
 End MatvecReal Routine
 Res_nrm_upper_bound:   4.7722876938475296E-004
 Iteration                   10
 Time (s):   4.8295019660145044E-003
 Start MatvecReal routine
 End MatvecReal Routine
 Res_nrm_upper_bound:   1.7624442665726981E-004
 Iteration                   11
 Time (s):   5.0628930330276489E-003
 Start MatvecReal routine
 End MatvecReal Routine
 Res_nrm_upper_bound:   7.2431880756316795E-005
 Iteration                   12
 Time (s):   4.9769219476729631E-003
 Start MatvecReal routine
 End MatvecReal Routine
 Res_nrm_upper_bound:   2.2208875387653930E-005
 Iteration                   13
 Time (s):   5.2730781026184559E-003
 Start MatvecReal routine
 End MatvecReal Routine
 Res_nrm_upper_bound:   1.1118776653826928E-005
 Iteration                   14
 Time (s):   5.4835469927638769E-003
 Start MatvecReal routine
 End MatvecReal Routine
 Start MatvecReal routine
 End MatvecReal Routine
 Res_nrm:    1.7672454280690705E-006
 Iteration                   15
 Time (s):   8.7767010554671288E-003
 Start MatvecReal routine
 End MatvecReal Routine
 Start MatvecReal routine
 End MatvecReal Routine
 Res_nrm:    1.0423234606639734E-006
 Iteration                   16
 Time (s):   8.6122490465641022E-003
 Start MatvecReal routine
 End MatvecReal Routine
 Start MatvecReal routine
 End MatvecReal Routine
 Res_nrm:    5.0963796027518884E-007
 Iteration                   17
 Time (s):   7.7315729577094316E-003
 End QMR Routine
 DIM/QM dipoles converged in                   17 iterations
 Took  0.10051685106009245      seconds
 
 End dimqm_iterative
 End dimqm_f2d
Polarizability tensor for DIM system: Static
              X              Y              Z
 -----------------------------------------------
 X    1774.2506015     -0.0023177      0.0711296
 Y      -0.0023053   1773.9888263      0.0534713
 Z       0.0712340      0.0535686   1774.0393118
 -----------------------------------------------

 Total time:  0.27538196905516088     
 Exiting AOResponse driver routine

 Task  times  cpu:        8.4s     wall:        8.4s
 Summary of allocated global arrays
-----------------------------------
  No active global arrays



                         GA Statistics for process    0
                         ------------------------------

       create   destroy   get      put      acc     scatter   gather  read&inc
calls:  568      568     4.72e+04 3276     9.41e+04  185        0     2361     
number of processes/call -1.88e+14 7.77e+13 1.50e+13 0.00e+00 0.00e+00
bytes total:             1.03e+07 1.27e+06 1.32e+07 1.52e+02 0.00e+00 1.89e+04
bytes remote:            0.00e+00 0.00e+00 0.00e+00 0.00e+00 0.00e+00 0.00e+00
Max memory consumed for GA by this process: 112632 bytes
MA_summarize_allocated_blocks: starting scan ...
MA_summarize_allocated_blocks: scan completed: 0 heap blocks, 0 stack blocks
MA usage statistics:

	allocation statistics:
					      heap	     stack
					      ----	     -----
	current number of blocks	         0	         0
	maximum number of blocks	        25	        53
	current total bytes		         0	         0
	maximum total bytes		   3323816	  22510696
	maximum total K-bytes		      3324	     22511
	maximum total M-bytes		         4	        23


                                NWChem Input Module
                                -------------------





                                     CITATION
                                     --------
                Please cite the following reference when publishing
                           results obtained with NWChem:

                 M. Valiev, E.J. Bylaska, N. Govind, K. Kowalski,
              T.P. Straatsma, H.J.J. van Dam, D. Wang, J. Nieplocha,
                        E. Apra, T.L. Windus, W.A. de Jong
                 "NWChem: a comprehensive and scalable open-source
                  solution for large scale molecular simulations"
                      Comput. Phys. Commun. 181, 1477 (2010)
                           doi:10.1016/j.cpc.2010.04.018

                                      AUTHORS
                                      -------
     E. Apra, E. J. Bylaska, N. Govind, K. Kowalski, M. Valiev, W. A. de Jong,
      T. P. Straatsma, H. J. J. van Dam, D. Wang, T. L. Windus, N. P. Bauman,
       A. Panyala, J. Hammond, J. Autschbach, K. Bhaskaran-Nair, J. Brabec,
    K. Lopata, S. A. Fischer, S. Krishnamoorthy, M. Jacquelin, W. Ma, M. Klemm,
       O. Villa, Y. Chen, V. Anisimov, F. Aquino, S. Hirata, M. T. Hackler,
           Eric Hermes, L. Jensen, J. E. Moore, J. C. Becca, V. Konjkov,
            D. Mejia-Rodriguez, T. Risthaus, M. Malagoli, A. Marenich,
   A. Otero-de-la-Roza, J. Mullin, P. Nichols, R. Peverati, J. Pittner, Y. Zhao,
        P.-D. Fan, A. Fonari, M. J. Williamson, R. J. Harrison, J. R. Rehr,
      M. Dupuis, D. Silverstein, D. M. A. Smith, J. Nieplocha, V. Tipparaju,
      M. Krishnan, B. E. Van Kuiken, A. Vazquez-Mayagoitia, M. Swart, Q. Wu,
   T. Van Voorhis, A. A. Auer, M. Nooijen, L. D. Crosby, E. Brown, G. Cisneros,
     G. I. Fann, H. Fruchtl, J. Garza, K. Hirao, R. A. Kendall, J. A. Nichols,
       K. Tsemekhman, K. Wolinski, J. Anchell, D. E. Bernholdt, P. Borowski,
       T. Clark, D. Clerc, H. Dachsel, M. J. O. Deegan, K. Dyall, D. Elwood,
      E. Glendening, M. Gutowski, A. C. Hess, J. Jaffe, B. G. Johnson, J. Ju,
        R. Kobayashi, R. Kutteh, Z. Lin, R. Littlefield, X. Long, B. Meng,
      T. Nakajima, S. Niu, L. Pollack, M. Rosing, K. Glaesemann, G. Sandrone,
      M. Stave, H. Taylor, G. Thomas, J. H. van Lenthe, A. T. Wong, Z. Zhang.

 Total times  cpu:        8.5s     wall:        8.5s
